/*--------------------------------*- C++ -*----------------------------------*\
  =========                 |
  \\      /  F ield         | OpenFOAM: The Open Source CFD Toolbox
   \\    /   O peration     | Website:  https://openfoam.org
    \\  /    A nd           | Version:  12
     \\/     M anipulation  |
\*---------------------------------------------------------------------------*/
FoamFile
{
    format      ascii;
    class       surfaceScalarField;
    location    "0.45";
    object      phi.water_0;
}
// * * * * * * * * * * * * * * * * * * * * * * * * * * * * * * * * * * * * * //

dimensions      [0 3 -1 0 0 0 0];

internalField   nonuniform List<scalar> 
7375
(
-2.3851e-07
6.0899e-08
-1.15889e-07
-7.22496e-08
-5.0079e-09
-1.12215e-07
-9.26027e-10
-5.48111e-08
5.72247e-08
-7.12409e-09
9.25933e-08
-3.57785e-08
6.66562e-08
2.61857e-08
5.05261e-08
1.56353e-08
6.35687e-08
-1.29129e-08
7.56684e-08
-1.12786e-08
8.43014e-08
-8.60572e-09
9.10239e-08
-5.67434e-09
2.14754e-07
3.14663e-08
8.22937e-08
-2.32757e-08
8.4125e-08
-1.83204e-09
7.13921e-08
1.28828e-08
1.96474e-07
2.87888e-08
8.58097e-08
-4.29091e-08
9.1723e-08
-5.87791e-09
2.19692e-07
2.31008e-08
1.05263e-07
-3.76266e-08
9.4338e-08
1.28315e-08
2.10224e-07
3.92759e-08
7.46653e-08
-1.9915e-08
8.61991e-08
-1.1603e-08
9.81172e-08
-1.21407e-08
1.11628e-07
-1.36347e-08
1.26833e-07
-1.5208e-08
1.23244e-07
3.60344e-09
1.21813e-07
1.48907e-09
1.21517e-07
3.03815e-10
1.30709e-07
-9.30931e-09
1.30223e-07
1.82553e-09
1.27721e-07
1.13027e-09
1.45073e-07
-1.86408e-08
1.47099e-07
-2.05745e-09
1.56807e-07
-9.60979e-09
1.55505e-07
2.94133e-09
1.48412e-07
7.08751e-09
1.45421e-07
2.96435e-09
1.47903e-07
-4.07613e-09
1.67846e-07
-1.99431e-08
1.94442e-07
-2.65968e-08
2.19969e-07
-2.77479e-08
2.33111e-07
-6.21135e-09
2.24513e-07
1.35049e-08
1.91327e-07
2.69736e-08
1.58127e-07
3.1267e-08
1.33263e-07
2.62869e-08
9.58271e-08
3.67971e-08
9.75218e-08
-1.69407e-09
1.14381e-07
-1.56946e-08
1.19317e-07
-4.89368e-09
1.14773e-07
4.5408e-09
1.15588e-07
3.54731e-10
1.12225e-07
3.38808e-09
1.21368e-07
-9.11911e-09
1.21362e-07
2.13251e-10
1.3952e-07
-1.91126e-08
1.50145e-07
-1.06344e-08
1.17408e-07
3.30924e-08
1.20924e-07
-3.45276e-09
1.25632e-07
-4.72809e-09
1.31971e-07
-4.96309e-09
8.39079e-08
-3.5934e-09
7.26597e-08
1.03809e-08
9.87732e-08
2.49995e-08
8.11212e-08
1.79182e-08
9.45078e-08
-1.43889e-08
1.0049e-07
-5.98317e-09
1.03905e-07
-2.39386e-09
1.02236e-07
2.71105e-09
2.20271e-07
3.70946e-08
8.01589e-08
-1.56977e-08
-1.73166e-08
-1.25784e-07
3.15919e-08
-9.23384e-08
-8.50593e-08
-4.96507e-08
-4.79501e-08
-1.06172e-07
-9.87099e-08
-8.99876e-08
-2.50729e-08
2.2363e-08
8.26715e-09
-8.04736e-08
-2.60942e-08
-3.98786e-08
-2.37329e-08
-2.40459e-08
-2.8634e-08
-6.3251e-09
-2.95416e-08
3.55396e-08
-5.08985e-08
8.04619e-08
-5.16407e-08
8.64573e-08
2.59697e-08
4.79142e-08
1.52661e-08
1.96857e-08
2.65963e-08
9.01224e-09
2.36479e-08
1.90843e-08
1.86228e-08
-1.08751e-08
-1.30347e-08
2.28321e-09
-1.90602e-08
3.82985e-08
-1.28926e-08
4.52445e-08
-4.54923e-08
3.23081e-08
2.55091e-08
5.82497e-08
1.27988e-08
2.43189e-08
1.41179e-08
1.33578e-09
1.16577e-08
-1.7239e-08
6.23975e-09
-2.68769e-08
-3.67977e-09
-2.94725e-08
-1.23389e-08
-2.35181e-08
-2.11123e-09
-2.15724e-08
-2.39246e-10
-1.04134e-08
-1.11782e-08
2.12934e-08
-4.11238e-08
3.23341e-08
-9.76213e-09
1.59004e-08
1.75524e-08
1.62845e-08
-1.92489e-08
1.80457e-08
-4.00274e-09
2.5062e-08
-1.64697e-08
2.45184e-08
3.74334e-09
4.10843e-09
2.70142e-08
-3.97348e-10
7.39005e-09
2.60447e-08
-3.05135e-08
5.26007e-08
-4.75048e-08
9.09445e-08
-6.494e-08
1.17254e-07
-5.34123e-08
1.52087e-07
-4.11079e-08
1.74514e-07
-7.49357e-09
1.24084e-07
7.71268e-08
1.02578e-07
5.07793e-08
9.13931e-08
3.83951e-08
3.897e-08
3.80519e-08
1.95733e-08
1.70883e-08
4.13639e-08
1.27704e-08
3.1942e-08
4.946e-09
3.51203e-08
1.68821e-09
4.63865e-08
-1.08012e-08
6.5253e-08
-1.55132e-08
8.19047e-08
-2.66064e-08
1.02461e-07
-2.13798e-08
1.1348e-07
-2.9097e-08
1.38233e-07
-3.35038e-08
7.74183e-08
4.09692e-08
8.3646e-08
4.0211e-08
6.67857e-08
1.23044e-08
8.12916e-08
-2.04969e-08
4.40596e-08
3.44961e-08
2.56722e-08
2.92179e-08
2.819e-08
2.30571e-08
-4.2367e-08
3.62184e-08
-2.20707e-08
1.73696e-08
-2.30546e-08
-5.06067e-09
-2.83473e-09
-2.25849e-08
2.39778e-08
-2.41009e-08
8.54078e-08
-2.47202e-08
1.21802e-08
6.21586e-09
3.23561e-08
-1.21587e-07
1.1088e-08
-9.58812e-08
-8.41559e-08
-7.2982e-08
-6.71709e-08
-1.05526e-07
-6.60981e-08
-8.84768e-08
-4.38288e-08
-6.45254e-08
-1.58538e-08
-6.68358e-08
-2.31029e-08
-7.43336e-08
-1.6747e-08
-6.99494e-08
-3.4025e-08
-1.27077e-07
-2.4438e-08
-1.22682e-07
-5.31044e-09
-3.10282e-08
1.30726e-08
-1.14166e-07
-4.42837e-08
-1.30509e-07
3.16087e-08
-1.32229e-07
2.83149e-08
-1.20073e-07
1.1249e-08
-1.05217e-07
3.57586e-09
-1.24572e-07
6.38436e-09
-1.4815e-07
4.32279e-09
-1.53686e-07
-9.05708e-09
-7.14262e-08
2.84301e-08
-1.66978e-07
-3.19908e-08
-1.56184e-07
1.89251e-09
-1.40954e-07
6.07449e-10
-1.4864e-07
1.79694e-08
-1.63049e-07
1.88568e-08
-1.77802e-07
1.11106e-08
-1.83235e-07
-5.09224e-09
-1.761e-07
-9.24677e-09
-1.67138e-07
-9.11099e-09
-1.74065e-07
-4.36587e-09
-7.41568e-08
1.30925e-08
-6.60669e-08
-1.78521e-08
-1.53706e-07
-4.97691e-08
-1.35467e-07
-3.7487e-08
-1.12613e-07
-2.52177e-08
-1.00981e-07
-2.827e-08
-9.24282e-08
-3.90408e-09
-5.2582e-08
-1.23006e-08
-3.76066e-08
-8.19065e-09
-3.39307e-08
-3.42615e-08
-1.7265e-08
-6.41701e-08
5.93452e-10
-8.43209e-08
-7.55494e-09
-4.52636e-08
6.76093e-09
-5.47954e-08
1.50534e-07
3.88746e-09
7.11157e-09
1.34656e-08
5.67396e-08
5.23418e-08
4.76911e-08
4.78369e-08
-1.14421e-08
9.58331e-08
-4.86893e-08
5.42189e-08
-5.50715e-08
1.92829e-08
-5.45035e-08
4.42853e-09
-5.45998e-08
2.34144e-09
-5.28586e-08
-1.26704e-08
-6.40035e-08
-4.95824e-09
-7.07785e-08
-2.00358e-08
-6.03085e-08
-3.2068e-08
-8.18914e-08
-9.48195e-09
8.72922e-09
3.25545e-08
-1.05389e-07
2.4772e-09
-8.47307e-08
1.88874e-08
-9.43895e-08
2.10003e-08
2.79337e-08
1.21228e-08
-9.27682e-08
1.69399e-09
-8.10361e-08
1.74859e-08
-9.0166e-08
3.21871e-08
-9.49128e-08
3.982e-08
-8.6242e-08
8.69862e-09
-8.76481e-08
-3.65476e-09
-9.70063e-08
-1.32267e-08
-6.33281e-08
-5.98923e-08
-8.36673e-08
-4.37956e-09
-7.62492e-08
-3.48259e-10
5.24764e-08
-1.5232e-07
-7.07694e-10
-1.03191e-07
-1.04663e-07
-1.19384e-07
-4.83796e-08
-1.25868e-07
-6.029e-08
-1.19418e-07
-4.95081e-08
-9.28091e-08
-4.32407e-08
-7.70168e-08
-3.9297e-08
-5.96958e-08
-3.36308e-08
-6.15195e-08
-3.28113e-08
-7.07829e-08
-1.47756e-08
-8.63518e-08
9.28182e-09
-1.06484e-07
3.18364e-08
-5.12422e-08
5.61467e-08
-1.79442e-07
6.69048e-09
-1.72748e-07
2.14013e-08
-1.67334e-07
5.77578e-09
-1.61213e-07
-4.19121e-09
-2.03642e-07
-2.9363e-09
-2.09097e-07
1.18547e-08
-2.09723e-07
4.02079e-08
-2.0169e-07
1.78403e-08
-2.26027e-07
-5.84519e-09
-2.18345e-07
-3.50361e-09
-2.1306e-07
-6.84528e-09
-1.9622e-07
1.12865e-09
-1.80083e-07
4.72079e-09
-1.72289e-07
3.2024e-09
-1.70833e-07
-6.54874e-09
-2.08271e-07
-2.08751e-08
-1.74061e-07
7.35296e-09
-1.78598e-07
-3.4275e-09
-1.59214e-07
-6.29097e-09
-1.51108e-07
-2.43341e-08
-1.55128e-07
-4.57487e-08
-1.40938e-07
-4.98569e-08
-9.67808e-08
-6.93749e-08
-8.29377e-08
-4.31002e-08
-7.18437e-08
-1.49978e-08
-8.80707e-08
3.80113e-09
-7.8525e-08
-1.78195e-08
-8.52075e-08
-2.75787e-08
-1.03284e-07
-4.71466e-08
-1.32937e-08
-1.9157e-08
-1.33059e-07
-7.75758e-08
-9.28329e-08
-9.40716e-08
-8.51689e-08
-4.763e-09
-1.19015e-07
4.73115e-08
-1.08732e-07
4.13723e-08
-9.61467e-09
1.05056e-07
-1.30888e-07
6.54893e-08
-1.08108e-07
3.01042e-08
-1.1347e-07
2.46452e-08
-1.22158e-07
1.31166e-08
-1.27284e-07
6.10594e-09
-1.49833e-07
8.2035e-09
-1.64949e-07
9.89966e-09
-1.69829e-07
-1.34557e-08
-1.46821e-07
-5.38932e-08
-1.325e-07
-2.38025e-08
-1.0286e-07
2.25024e-09
-1.33378e-07
3.26867e-08
-1.30577e-07
1.62521e-08
-1.34125e-07
2.45483e-08
-9.6809e-09
4.11263e-08
-1.2768e-07
-3.45834e-08
-1.20137e-07
9.94261e-09
-1.33235e-07
4.61736e-08
-1.1969e-07
2.62746e-08
-1.21307e-07
9.09434e-09
-1.2821e-07
3.24872e-09
-1.50115e-07
5.55916e-09
-8.40392e-08
3.08024e-08
-1.06996e-07
2.05472e-08
-8.10351e-08
-2.54816e-08
-2.17282e-08
-1.75586e-07
6.9679e-09
-4.47472e-08
-4.01452e-08
-1.32647e-07
-1.12279e-07
-1.23949e-07
-7.03418e-08
-1.18578e-07
-5.48803e-08
-1.13221e-07
-4.90394e-08
-1.0973e-07
-4.39561e-08
-8.86477e-08
-5.4499e-08
-7.22811e-08
-4.80271e-08
-3.62767e-08
-5.04146e-08
-1.05128e-08
-1.68494e-08
1.0324e-09
2.00521e-08
2.41189e-08
3.22485e-08
-3.4425e-08
6.58246e-08
-4.77848e-08
3.48949e-08
-8.43488e-08
4.22832e-08
-1.29648e-07
3.89238e-08
-2.10564e-07
2.62913e-08
-1.66674e-07
2.30017e-08
-1.38084e-07
1.30119e-08
-1.23143e-07
2.56704e-09
-1.01901e-07
-2.85607e-08
-1.22061e-07
1.54582e-08
-1.25174e-07
-3.7332e-09
-1.2828e-07
4.22272e-09
-1.25708e-07
2.14734e-09
-1.19935e-07
-2.57067e-09
-1.02173e-07
-2.4562e-08
-1.5088e-07
2.78318e-08
-1.42167e-07
-1.28592e-09
-1.42458e-07
-3.13622e-09
-1.53837e-07
5.10036e-09
-1.51314e-07
-2.71345e-08
-1.34877e-07
-6.2186e-08
-1.66714e-07
-1.80197e-08
-6.25937e-08
-2.06313e-08
-6.90249e-08
-3.66688e-08
-5.86907e-08
-2.53317e-08
-1.59514e-07
-4.89465e-08
-1.42484e-07
-3.48494e-08
-1.31354e-07
-3.83169e-08
-1.26522e-07
-5.19783e-08
-1.28243e-07
-6.84313e-08
-1.52546e-07
-5.17157e-08
-1.65605e-07
-3.12889e-08
-1.94625e-07
2.28005e-08
-2.11838e-07
6.30064e-08
-8.31167e-08
6.76456e-08
-1.10381e-07
8.15138e-08
-1.32284e-07
-1.23026e-08
-1.09795e-07
6.26529e-09
-1.25028e-07
3.94758e-08
-1.33278e-07
2.29606e-08
-1.1861e-07
-8.64986e-09
-1.29098e-07
1.87153e-08
-1.25967e-07
6.66814e-09
-1.52163e-07
1.00398e-08
-8.00492e-08
2.91475e-08
-9.28283e-08
-1.02069e-08
-8.8188e-08
-1.49042e-09
-1.94701e-07
-1.47866e-08
-1.90226e-07
9.77029e-09
-1.58782e-07
-5.00637e-09
-1.54479e-07
3.36714e-08
-1.13833e-07
8.07004e-08
-1.12278e-07
1.18554e-08
-1.83993e-07
-3.41314e-08
-1.5377e-07
-5.55741e-09
-1.54521e-07
9.84581e-09
-1.5238e-07
2.66219e-09
-1.43937e-07
-2.91371e-09
-1.29626e-07
1.3073e-08
-1.55374e-07
-5.42121e-09
-1.22178e-07
-5.96178e-09
4.47913e-08
-1.68915e-07
1.62458e-08
-1.00553e-07
-7.64701e-08
-1.21184e-07
-9.1679e-08
-1.19275e-07
-7.10149e-08
-1.16763e-07
-5.73936e-08
-1.14837e-07
-5.21376e-08
-1.59939e-07
-4.89247e-08
-1.16411e-07
-4.63645e-08
-1.68596e-07
-4.87606e-08
-1.25516e-07
-4.10998e-08
-9.64462e-08
-4.70759e-08
-1.14139e-07
-1.39739e-08
-4.45459e-08
1.5496e-08
-1.77076e-07
-5.79521e-09
-1.14579e-07
2.30086e-08
-1.44924e-07
7.30628e-08
-1.44021e-07
3.94988e-08
-1.40737e-07
2.27375e-08
-1.34892e-07
1.71552e-08
-1.41202e-07
1.94542e-08
-1.45475e-07
5.32664e-09
-4.4523e-08
2.58052e-08
-1.46662e-07
-3.3974e-08
-1.24917e-07
-2.69756e-08
-1.18482e-07
-2.21293e-09
-1.1435e-07
-1.98582e-09
-1.23729e-07
5.5459e-09
-3.82218e-08
4.50844e-08
-1.69647e-07
-4.51147e-08
-1.14513e-07
-5.17693e-09
-1.32467e-07
1.60049e-08
-1.28155e-07
-5.10552e-10
-1.45523e-07
-1.10878e-08
-3.61159e-08
-1.67076e-08
-1.66055e-07
-9.37989e-08
-8.71552e-08
-4.83407e-08
-9.36702e-08
-3.01536e-08
-9.60334e-08
-2.29683e-08
-1.2747e-07
-1.73333e-08
-1.33095e-07
-2.7584e-08
-1.27353e-07
-4.40594e-08
-1.12328e-07
-6.90059e-08
-1.71069e-07
-9.68983e-09
-1.8074e-07
-4.2045e-08
-2.0191e-07
-1.2497e-08
-2.21262e-07
3.98724e-08
-2.28999e-07
7.06631e-08
-1.07466e-07
1.0293e-07
-2.16198e-07
3.4734e-08
-1.20966e-07
4.74929e-08
-1.22098e-07
9.87678e-09
-2.06207e-07
-3.05181e-08
-2.27003e-07
-1.2426e-08
-2.17411e-07
3.57267e-08
-1.9386e-07
-2.59205e-09
-1.87432e-07
3.08578e-10
-1.81094e-07
3.70185e-09
-1.58677e-07
6.4325e-09
-1.60809e-07
-8.07447e-09
-1.32237e-07
-3.03725e-08
-1.83589e-07
3.6047e-08
-2.09444e-07
3.33881e-08
-1.21547e-07
6.22508e-08
-1.08464e-07
2.29356e-08
-1.67013e-07
-1.44012e-08
-1.47359e-07
-9.50171e-09
-1.65548e-07
-1.62906e-08
-1.64331e-07
-6.77423e-09
-1.60968e-07
6.48295e-09
-1.72689e-07
1.26215e-08
-1.82982e-07
7.3495e-09
-1.83539e-07
1.5497e-08
-2.06303e-07
1.51407e-08
-7.61342e-08
1.92223e-08
-3.55619e-09
-2.02929e-07
2.67819e-08
-1.40139e-07
-1.0871e-07
-1.55962e-07
-7.20223e-08
-1.41435e-07
-8.39522e-08
-1.44803e-07
-5.40267e-08
-1.53477e-07
-4.34638e-08
-1.74334e-07
-2.75692e-08
-1.90018e-07
-3.11552e-08
-2.05448e-07
-3.3172e-08
-2.22724e-07
-2.38251e-08
-1.13312e-07
-2.91779e-09
-1.41752e-07
1.32979e-08
-1.36227e-07
8.47786e-09
-1.67021e-07
2.46809e-08
-6.01526e-08
7.22697e-08
-1.51227e-07
1.04328e-08
-1.30222e-07
1.84935e-08
-1.28929e-07
2.12267e-08
-1.15756e-07
3.98113e-09
-1.46819e-07
8.23863e-10
-1.08991e-07
1.79893e-08
-8.96997e-08
5.13766e-09
-1.24403e-07
3.85713e-10
-1.31311e-07
-2.0068e-08
-1.14383e-07
-1.91419e-08
-1.09011e-07
-7.35828e-09
-1.01103e-07
-2.36235e-09
-9.25831e-08
-1.50868e-08
-1.07998e-07
-2.8893e-08
-9.24586e-08
3.08905e-08
-8.78375e-08
9.66037e-09
-1.22344e-07
-1.84429e-08
-6.2188e-08
-1.91312e-08
-4.42327e-08
-3.51188e-08
-9.53016e-08
-4.27142e-08
-7.62101e-08
-6.64598e-08
-8.02016e-08
-2.58977e-08
-9.66999e-08
-5.42794e-09
-1.0016e-07
-1.28615e-08
-1.07323e-07
-2.1432e-08
-1.32779e-07
-2.17237e-08
-5.25296e-08
5.96048e-09
-1.93118e-07
-7.33271e-08
-1.6207e-07
-2.19021e-08
-1.72875e-07
-1.69148e-09
-1.73695e-07
3.98785e-08
-1.83384e-07
7.88279e-08
-1.43189e-07
1.12876e-07
-1.56636e-07
4.76946e-08
-1.42205e-07
3.25775e-08
-1.38027e-07
5.69836e-09
-1.74467e-07
5.66849e-09
-1.80862e-07
-5.90373e-09
-1.7487e-07
-2.00364e-08
-1.343e-07
7.4363e-09
-1.44564e-07
9.20197e-09
-1.46816e-07
5.95469e-09
-1.4497e-07
4.58611e-09
-1.6662e-07
1.19976e-08
-7.44581e-08
3.33874e-08
-1.86552e-07
-3.15971e-09
-1.63845e-07
8.77841e-09
-1.4128e-07
3.90509e-08
-1.38045e-07
1.97005e-08
-1.48471e-07
-4.1228e-09
-1.49806e-07
-8.16645e-09
-1.52481e-07
-1.36152e-08
-1.46016e-07
-1.32393e-08
-1.466e-07
7.06694e-09
-1.52573e-07
1.85947e-08
-1.64554e-07
1.92565e-08
-1.71619e-07
2.40677e-08
-1.50697e-07
-7.37541e-09
-4.61013e-08
6.78057e-08
-1.90298e-08
-1.30353e-07
-1.25575e-08
-1.45433e-07
-6.7406e-08
-1.50668e-07
-6.1603e-08
-1.63761e-07
-7.15895e-08
-2.1849e-07
7.01239e-10
-2.32237e-07
-2.97179e-08
-2.52061e-07
-7.74638e-09
-2.6739e-07
-1.83674e-08
-2.55526e-07
-4.50366e-08
-2.41432e-07
-3.49562e-08
-2.04642e-07
-4.17973e-08
-1.99745e-07
-4.12586e-08
-1.35104e-07
-3.55906e-09
-1.33043e-07
2.2346e-08
-1.104e-07
4.93938e-08
-1.19542e-07
1.84476e-08
-1.25364e-07
2.55941e-08
-1.18259e-07
1.41201e-08
-1.19123e-07
3.67547e-09
-1.31299e-07
1.43381e-08
-1.05725e-07
-7.32976e-09
-1.0637e-07
3.58185e-09
-1.59739e-07
2.01517e-09
-1.28482e-07
1.47878e-09
-1.31744e-07
-1.58801e-08
-1.20771e-07
-1.81471e-08
-1.19157e-07
-3.93718e-09
-1.40052e-07
4.33559e-09
-4.53783e-08
3.15866e-08
-1.23338e-07
-4.52011e-08
-9.11449e-08
-2.1275e-08
-7.28549e-08
-3.48907e-08
-6.32711e-08
-2.97512e-08
-6.874e-08
-3.06383e-08
-1.3798e-07
-2.47518e-08
-1.28795e-07
-2.17327e-08
-1.09069e-07
-4.49761e-08
-1.40507e-07
2.49085e-08
-1.36113e-07
-1.86294e-08
-1.35022e-07
-2.41191e-08
-1.28295e-07
-2.94685e-08
-1.14931e-07
-5.84637e-08
-1.64059e-07
2.81646e-08
-1.58462e-07
-2.74993e-08
-1.91452e-07
-1.81227e-08
-1.48167e-07
4.87629e-08
-1.39644e-07
6.8809e-08
-9.52625e-08
1.68512e-08
-1.23467e-07
7.58995e-08
-1.31722e-07
3.91729e-08
-1.34327e-07
6.93297e-09
-1.66295e-07
-1.40809e-08
-1.62515e-07
-7.98715e-09
-1.52228e-07
-2.90679e-08
-1.32388e-07
3.83452e-08
-1.39668e-07
1.51314e-08
-1.40333e-07
6.61966e-09
-1.49607e-07
1.23339e-08
-1.61923e-07
2.43138e-08
-1.54345e-07
2.55456e-08
-2.08216e-07
-1.03924e-09
-1.49861e-07
3.77671e-09
-1.53561e-07
4.23189e-08
-1.50279e-07
1.64191e-08
-1.57402e-07
2.99973e-09
-1.62837e-07
-2.73157e-09
-1.57923e-07
-1.87199e-08
-1.31976e-07
-3.91861e-08
-1.27633e-07
2.72486e-09
-1.30908e-07
2.18699e-08
-1.68471e-07
5.85381e-08
-1.77268e-07
3.07652e-08
-6.6396e-08
3.56891e-08
-1.37186e-07
-1.34386e-08
7.97482e-10
-1.68151e-07
5.89732e-08
-1.65804e-07
-3.87662e-08
-2.00266e-07
-2.41107e-08
-1.16347e-07
-3.55107e-10
-2.54947e-07
-6.42746e-08
-2.30876e-07
-2.59878e-09
-2.30477e-07
-5.7946e-09
-2.3336e-07
-1.54853e-08
-2.57983e-07
-1.9704e-08
-2.54597e-07
-3.87343e-08
-2.24349e-07
-7.46439e-08
-2.49208e-07
-1.58182e-08
-2.22523e-07
-3.02813e-08
-1.97814e-07
-4.33742e-09
-1.80097e-07
-1.95339e-08
-1.46558e-07
-1.32549e-08
-1.5803e-07
3.66907e-08
-1.60006e-07
1.46074e-08
-1.88587e-07
3.22552e-08
-1.53463e-07
-1.72968e-08
-1.3213e-07
-2.7404e-08
-8.21117e-08
-4.69423e-08
-8.47909e-08
4.65324e-09
-6.97147e-08
-1.44544e-08
-5.82277e-08
-2.77682e-08
-4.26866e-08
-3.32577e-08
-3.07849e-08
-1.58001e-08
-1.41454e-08
-1.26152e-08
-2.66813e-08
-7.53484e-09
-2.27999e-08
2.34027e-09
-4.84722e-08
4.61182e-09
-8.39183e-08
-1.1631e-09
-1.13729e-07
-2.47128e-10
-1.3732e-07
-5.88688e-09
-1.66793e-07
4.97314e-09
-1.84604e-07
-5.74605e-09
-5.76938e-08
-1.71954e-08
-2.14953e-07
-1.95583e-08
-1.63793e-07
-1.91154e-08
-1.44204e-07
-4.43601e-08
-1.37327e-07
-3.78167e-08
-6.493e-08
2.37255e-08
-2.24683e-07
-1.61817e-08
-2.12755e-07
9.49622e-09
-2.41829e-07
1.09519e-08
-1.98004e-07
7.90228e-09
-2.20117e-07
4.04338e-08
-8.39134e-08
8.62898e-08
-1.75115e-07
1.60912e-08
-1.46917e-07
1.0975e-08
-1.1804e-07
-2.34432e-08
-1.47966e-07
1.58274e-08
-1.7106e-07
1.33614e-08
-7.99181e-08
3.49446e-08
-1.69115e-07
-2.48223e-08
-1.5142e-07
-2.5638e-09
-1.46722e-07
1.92144e-09
-1.43542e-07
9.15389e-09
-1.37151e-07
1.76747e-08
-1.59086e-07
4.74805e-08
-1.8684e-07
2.48194e-08
-5.62934e-08
2.89644e-08
-1.51416e-07
-1.40102e-08
-1.3873e-07
2.18862e-09
-1.43856e-07
8.12535e-09
-1.52508e-07
4.32142e-09
-2.27018e-07
4.1142e-09
-9.85448e-08
3.94184e-08
-1.18494e-07
2.26741e-08
-1.07854e-07
1.12306e-08
-1.88835e-07
-1.21251e-08
-1.49282e-07
-8.47604e-09
-1.14382e-07
-1.09614e-09
-1.22781e-07
-5.17718e-09
-1.39794e-08
-1.17414e-07
-5.45529e-08
-1.20221e-07
-1.03502e-08
-1.3101e-07
-9.64248e-09
-1.21279e-07
-1.00839e-08
-1.5068e-07
-3.48744e-08
-1.77071e-07
2.3551e-08
-1.79555e-07
-3.31111e-09
-1.78136e-07
-1.70625e-08
-1.77093e-07
-2.23272e-08
-2.35712e-07
-3.25696e-08
-9.62464e-08
-5.96182e-09
-2.02211e-07
-6.25066e-08
-1.88127e-07
-4.45091e-08
-1.66688e-07
-2.55201e-08
-1.69287e-07
3.27538e-08
-6.31996e-08
3.48722e-08
-1.62484e-07
-1.60465e-08
-1.49142e-07
-3.88573e-10
-1.59519e-07
-8.79914e-09
-1.09155e-07
-1.64714e-08
-2.04963e-07
1.69334e-08
-5.18236e-08
4.72899e-09
-1.24772e-07
-7.51314e-08
-1.36261e-07
-5.77607e-09
-1.45299e-07
-1.87312e-08
-1.51852e-07
-2.40134e-08
-1.42459e-07
-2.53533e-08
-1.41961e-07
-1.46953e-08
-1.23874e-07
-2.5887e-08
-1.38686e-07
1.71519e-08
-1.39818e-07
4.36506e-09
-1.49941e-07
8.95942e-09
-1.55551e-07
6.89527e-09
-1.64098e-07
2.6598e-09
-1.61724e-07
4.24895e-09
-1.5812e-07
-9.35002e-09
-8.50229e-09
-1.46792e-08
-1.72931e-07
-5.98906e-08
-1.67781e-07
-2.61728e-08
-1.06839e-07
4.87517e-08
-1.45083e-07
5.13618e-08
-1.10089e-07
-9.91519e-09
-2.38527e-07
-3.77586e-08
-2.2359e-07
-5.44022e-09
-2.24239e-07
9.20848e-09
-2.28727e-07
1.23902e-08
-2.11164e-07
2.05072e-08
-1.64541e-07
3.96678e-08
-1.65734e-07
1.8963e-08
-1.71387e-07
1.67394e-08
-5.50262e-08
1.43289e-08
-1.27934e-07
-6.39303e-08
-1.2445e-07
8.57179e-09
-1.08493e-07
1.86316e-08
-1.30233e-07
-3.08235e-09
-1.18958e-07
-1.36997e-08
-1.17874e-07
8.46259e-10
-1.09436e-07
7.15868e-10
-1.08792e-07
1.70305e-08
-1.32014e-07
1.95128e-08
-1.31919e-07
2.47237e-08
-9.43443e-08
4.22851e-08
-1.18213e-07
9.71601e-09
-1.20301e-07
4.27613e-09
-1.62595e-07
8.88249e-10
-1.26901e-07
1.80192e-08
-1.95675e-07
1.98203e-08
-1.29939e-07
2.68685e-08
-1.25979e-07
1.87145e-08
-1.22181e-07
7.43282e-09
-1.32293e-07
-2.01238e-09
-1.2828e-07
-1.2574e-08
-1.24687e-07
-4.688e-09
-1.2581e-07
-4.05337e-09
-8.63582e-09
-7.16612e-08
6.8204e-08
-1.59857e-07
-6.80285e-08
-1.04072e-07
-6.05361e-08
-1.28417e-07
1.41164e-08
-3.59257e-08
2.65713e-08
-1.35712e-07
-2.86836e-08
-1.24286e-07
-1.61227e-08
-1.19668e-07
-2.04604e-08
-1.12379e-07
-3.10657e-08
-1.7729e-07
-2.02006e-08
-1.07942e-07
-2.34126e-08
-1.67537e-07
-5.52742e-08
-1.54678e-07
-5.46397e-08
-1.52352e-07
2.2343e-08
-1.29321e-07
8.168e-09
-1.08222e-07
1.37718e-08
-1.21626e-07
-1.56587e-09
-1.09121e-07
-1.1793e-08
-1.22441e-07
3.45259e-09
-1.12499e-08
2.46591e-08
-1.52338e-07
-4.72228e-08
-1.23215e-07
2.55384e-08
-5.95108e-08
1.55435e-08
-1.81007e-07
-3.72443e-08
-1.50559e-07
-4.94944e-08
-1.81906e-07
7.33343e-09
-1.60961e-07
-4.65571e-08
-1.98256e-07
2.05766e-08
-1.02514e-07
3.35242e-08
-2.05502e-07
-3.23858e-08
-1.85407e-07
-1.573e-08
-1.52025e-07
-2.47671e-08
-1.84242e-07
3.91126e-08
-1.64524e-07
-1.68864e-08
-1.78625e-07
-3.28399e-08
-1.70229e-07
-1.80259e-08
-1.2605e-07
-7.74575e-09
-1.67899e-07
-1.82283e-08
-1.61596e-07
-3.28104e-08
-1.61534e-07
4.7706e-08
-1.66579e-07
6.39238e-09
-1.50667e-07
2.49472e-08
-1.61741e-07
-2.82214e-08
-1.90756e-07
2.32813e-08
-1.89896e-07
8.43505e-09
-1.90337e-07
1.47734e-08
-1.74632e-07
4.80221e-09
-1.55529e-07
1.83789e-08
-1.54527e-07
1.7961e-08
-1.51702e-07
1.39142e-08
-1.45731e-07
6.87166e-09
-6.13832e-08
6.21706e-09
-1.42672e-07
-6.37351e-08
-1.41746e-07
1.75276e-08
-1.38157e-07
-5.26226e-09
-1.41481e-07
-1.18041e-08
-1.47182e-07
5.0892e-09
-1.46813e-07
1.84779e-09
-1.35325e-07
5.543e-09
-1.3114e-07
1.53277e-08
-1.26657e-07
2.0241e-08
-1.09515e-07
2.51428e-08
-1.15392e-07
1.55927e-08
-9.96828e-08
-1.15503e-08
-1.46038e-07
4.72438e-08
-1.33648e-07
5.81348e-09
-1.34185e-07
2.01553e-08
-1.20596e-07
1.3279e-08
-1.20939e-07
1.90578e-08
-1.23192e-07
9.68624e-09
-1.26312e-07
1.10838e-09
-1.3002e-07
-8.86536e-09
-1.32072e-07
-2.60707e-09
-1.2248e-07
-1.36452e-08
-1.77226e-08
-1.38825e-07
2.90675e-08
-1.49688e-07
-2.90362e-08
-3.78708e-08
-1.22883e-08
-1.07881e-07
-6.8587e-08
-9.82504e-08
1.58392e-08
-1.05451e-07
-2.17764e-08
-1.04347e-07
-1.72278e-08
-1.10395e-07
-1.5539e-08
-9.82886e-08
-4.34933e-08
-1.25748e-07
8.38079e-09
-1.35946e-07
-1.32147e-08
-1.83342e-07
-9.18571e-09
-8.25706e-08
5.92621e-10
-1.23697e-07
-8.7492e-08
-1.20047e-07
3.25468e-09
-1.14791e-07
8.51509e-09
-1.20207e-07
3.8495e-09
-1.11247e-07
-2.22364e-08
-1.49725e-07
4.19654e-08
-1.51161e-07
2.60795e-08
-8.26917e-08
3.9461e-08
-1.8818e-07
-2.17022e-08
-1.31837e-07
-4.1381e-08
-1.92782e-07
2.17342e-08
-8.59207e-08
-1.20277e-09
-2.38065e-07
-4.44083e-08
-9.77656e-08
1.7905e-08
-2.07248e-07
-2.35125e-08
-1.67276e-07
-6.79005e-09
-1.9715e-07
-2.5387e-09
-1.98014e-07
-1.6886e-08
-1.01964e-07
3.43369e-08
-2.28654e-07
-3.55866e-08
-1.91115e-07
-3.75129e-09
-2.22011e-07
-6.22263e-09
-2.32306e-07
-1.01247e-08
-2.07092e-07
-3.26999e-08
-2.56155e-07
3.00196e-08
-1.56948e-07
2.73947e-08
-2.38092e-07
-2.13697e-08
-2.27253e-07
-6.94617e-09
-2.09261e-07
7.21054e-09
-1.0979e-07
2.69989e-08
-2.20001e-07
-2.05426e-08
-2.20508e-07
6.67497e-09
-1.94435e-07
-9.05005e-09
-1.8202e-07
-7.56278e-09
-1.57079e-07
-6.56186e-09
-1.4276e-07
3.64174e-09
-1.38325e-07
9.47914e-09
-1.3239e-07
9.37174e-10
-1.03999e-07
-2.35386e-08
-5.70284e-08
4.50362e-08
-1.46098e-07
-4.48476e-08
-1.34447e-07
-1.84036e-08
-1.37681e-07
-8.69055e-09
-1.39856e-07
7.21323e-09
-1.44919e-07
6.91082e-09
-1.42975e-07
3.59881e-09
-1.34626e-07
6.97896e-09
-1.34276e-07
1.98903e-08
-1.17065e-07
8.01429e-09
-1.63831e-07
6.00744e-08
-7.04824e-08
5.02551e-08
-1.99337e-07
-2.79439e-08
-1.51808e-07
9.47448e-09
-1.14998e-07
-1.68259e-08
-1.38329e-07
3.66107e-08
-1.38956e-07
1.96846e-08
-1.4146e-07
1.21905e-08
-1.42638e-07
2.2875e-09
-1.52242e-07
2.29236e-09
-1.47871e-07
-6.97635e-09
-1.6846e-07
3.71739e-09
5.38194e-08
-1.39797e-07
1.41165e-08
-1.21734e-07
-1.88159e-08
-1.10864e-07
-2.18064e-08
-3.33519e-08
8.34718e-09
-1.58461e-07
-6.41282e-08
-1.25121e-07
-3.92688e-09
-1.21428e-07
-2.09215e-08
-1.29174e-07
-7.71538e-09
-3.20791e-08
1.37536e-08
-1.27605e-07
-4.81148e-08
-1.05817e-07
-3.6305e-08
-1.39922e-07
-2.62724e-08
-1.33298e-07
-6.03761e-09
-3.81442e-08
2.12219e-08
-1.51231e-07
-3.72307e-08
-1.0548e-07
-3.76207e-08
-1.57974e-07
5.47308e-08
-6.48146e-08
3.9352e-08
-1.69414e-07
-6.77428e-09
-1.52712e-07
9.37645e-09
-1.48773e-07
3.54803e-08
-1.65466e-07
-6.63036e-09
-6.67243e-08
1.50311e-08
-1.96458e-07
-5.26137e-08
-1.42787e-07
-3.67194e-09
-1.8233e-07
-4.91634e-09
-1.46599e-07
-1.78266e-08
-1.68991e-07
-1.12047e-09
-1.72769e-07
-4.77542e-09
-1.98133e-07
-2.88923e-08
-1.52892e-07
-9.00767e-09
-1.49721e-07
3.05043e-08
-1.85307e-07
-8.65172e-13
-1.83426e-07
-7.54185e-09
-2.05291e-07
1.56421e-08
-2.24193e-07
1.09754e-08
-1.25158e-07
2.34464e-08
-2.26904e-07
-2.05573e-08
-1.78724e-07
-2.15569e-08
-1.9207e-07
-1.00765e-08
-2.03657e-07
2.63365e-09
-1.90548e-07
-3.82001e-09
-1.73185e-07
1.1403e-08
-1.66598e-07
-2.70641e-08
-1.57709e-07
-3.94066e-09
-1.56486e-07
-1.02733e-08
-1.4528e-07
-1.87686e-08
-1.36614e-07
-1.52273e-08
-1.05436e-07
-2.78199e-08
-1.37909e-07
4.19523e-08
-1.54313e-07
1.57664e-08
-2.95413e-08
6.77448e-09
-1.47029e-07
-4.23958e-08
-1.28898e-07
-1.22461e-08
-1.43605e-07
-3.6958e-09
-1.5965e-07
7.35428e-09
-1.59346e-07
6.90975e-09
-1.60811e-07
8.37583e-09
-1.54586e-07
-2.62696e-09
-1.41218e-07
-6.4548e-09
-1.78927e-07
5.5775e-08
-8.22781e-08
6.73671e-08
-1.67158e-07
-6.23474e-09
-1.29936e-07
1.08145e-08
-1.3906e-07
-1.90129e-08
-1.73547e-07
4.21911e-08
-7.01032e-08
3.48844e-08
-1.81293e-07
-5.05503e-09
-1.69312e-07
7.704e-09
-1.68106e-07
1.09843e-08
-1.68874e-07
3.05622e-09
-1.59255e-07
-7.32521e-09
-1.32544e-07
-3.41045e-08
-1.44525e-07
1.71726e-08
2.89122e-08
-1.92028e-07
1.63917e-08
-1.51051e-07
-2.58594e-08
-1.29699e-07
-3.85363e-08
-1.1592e-07
-6.7003e-09
-1.66923e-07
-1.31261e-08
-1.49263e-07
-1.98847e-08
-1.55632e-07
-1.29648e-08
-1.45106e-07
-1.82428e-08
-1.12368e-07
-2.04658e-08
-1.30423e-07
-3.05516e-08
-1.50588e-07
-1.61407e-08
-1.60394e-07
-1.64672e-08
-1.71562e-07
5.12947e-09
-1.40601e-07
-9.73966e-09
-1.70034e-07
-9.53308e-09
-7.66367e-08
2.41348e-08
-1.95937e-07
-2.79508e-08
-1.28776e-07
2.24661e-08
-1.33335e-07
-3.52994e-09
-1.3285e-07
7.53544e-09
-1.5187e-07
4.347e-09
-1.25275e-07
1.87909e-08
-1.08574e-07
-3.10172e-09
-1.43289e-07
-1.78997e-08
-1.41274e-07
-7.12903e-09
-1.81257e-07
-1.6652e-08
-1.55628e-07
9.58424e-09
-1.5535e-07
-1.39919e-09
-1.59462e-07
-6.63568e-10
-2.09252e-07
1.92537e-08
-7.60693e-08
1.37473e-08
-1.67828e-07
-2.8989e-08
-1.6621e-07
-3.33179e-09
-1.66167e-07
-7.58478e-09
-1.63243e-07
1.24318e-08
-1.60989e-07
8.72099e-09
-1.47244e-07
9.70224e-09
-1.62934e-07
-5.07687e-09
-1.56753e-07
-2.61394e-08
-1.19738e-07
-4.59838e-08
-1.23969e-07
5.57305e-09
-1.20719e-07
-8.33507e-09
-1.38517e-07
-2.05751e-08
-1.06982e-07
-7.11911e-09
-9.96578e-08
-1.23448e-08
-1.14207e-07
3.29335e-09
-1.10472e-07
-2.25038e-08
-1.24619e-07
-2.35087e-09
-1.36882e-08
1.6403e-08
-1.40033e-07
-3.63242e-08
-1.38513e-07
1.56593e-08
-8.5613e-08
4.47955e-09
-7.0413e-08
-5.84691e-08
-9.73761e-08
1.45685e-08
-1.13583e-07
1.25109e-08
-1.29499e-07
2.32711e-08
-1.32087e-07
9.49704e-09
-1.42183e-07
1.84724e-08
-1.73979e-07
2.73942e-08
-8.83741e-08
6.30945e-08
-1.88128e-07
2.83071e-09
-1.43998e-07
2.23218e-08
-1.51418e-07
1.12157e-09
-1.63012e-07
2.07463e-08
-7.11338e-08
4.42629e-08
-2.08101e-07
-2.46259e-08
-1.49899e-07
2.75167e-08
-1.66221e-07
1.12677e-08
-1.62094e-07
3.57725e-09
-1.66844e-07
1.57343e-08
-1.76145e-07
1.2358e-08
-1.95328e-07
9.86637e-09
-1.03745e-07
2.94682e-08
-2.20663e-07
-1.84214e-08
-7.34735e-09
-1.22015e-07
-1.8463e-08
-1.27422e-07
4.91608e-09
-1.25724e-07
-3.63356e-08
-1.19786e-07
-1.26389e-08
-1.23285e-07
-9.49399e-09
-1.28261e-07
-1.49089e-08
-1.43168e-07
1.94086e-09
-1.46001e-07
-1.55965e-08
-1.47059e-07
-1.94089e-08
-1.3641e-07
-4.1626e-08
-1.73783e-07
2.12318e-08
-1.77688e-07
-1.25633e-08
-1.73265e-07
7.06044e-10
-1.66795e-07
-1.6211e-08
-1.28824e-07
-4.75051e-08
-1.30376e-07
2.51828e-08
-1.62472e-07
4.14403e-09
-1.45355e-07
5.57769e-09
-1.43902e-07
-4.98364e-09
-1.18232e-07
-1.81352e-08
-1.57667e-07
4.48871e-08
-1.3915e-07
4.62729e-10
-1.35378e-07
-8.29442e-09
-1.33335e-07
-1.9943e-08
-1.32303e-07
-8.16151e-09
-1.41474e-07
-7.31207e-09
-1.31744e-07
-1.46378e-10
-1.36255e-07
3.11174e-09
-1.44294e-07
5.90257e-09
-1.8109e-07
4.33193e-09
-1.32223e-07
1.77779e-08
-1.33926e-07
-2.78666e-08
-1.66593e-07
2.93349e-08
-1.77301e-07
4.93189e-09
-1.38415e-07
-2.61893e-08
-1.36706e-07
5.5999e-09
-1.36792e-07
9.68946e-09
-1.43472e-07
1.60307e-09
-1.65861e-07
-3.7505e-09
-5.93251e-08
1.18791e-09
-1.26077e-07
-8.04515e-08
-1.33119e-07
-2.5789e-09
-1.39003e-07
-1.46913e-08
-1.29441e-07
-1.67537e-08
-1.31081e-07
-1.21675e-08
-1.65861e-07
-1.3644e-08
-1.51734e-07
1.64192e-08
-1.48607e-07
-5.47832e-09
-7.96086e-08
-5.27621e-08
-1.37238e-07
2.10898e-08
-1.59868e-07
-1.29002e-08
-1.48276e-07
-7.0664e-09
-1.11e-08
9.32455e-09
-1.43667e-07
-4.88466e-09
-1.22532e-07
-1.00898e-08
-1.20837e-07
2.15763e-08
-1.1684e-07
5.44482e-09
-1.15937e-07
1.75694e-08
-1.14865e-07
2.63222e-08
-8.04886e-08
2.86039e-08
-9.76871e-08
2.10159e-08
-8.33016e-08
6.94988e-09
-1.05168e-07
2.21381e-08
-9.45795e-08
1.01581e-08
-7.57033e-08
2.54481e-08
-1.29279e-07
2.92452e-08
-1.36957e-07
3.35342e-08
-1.36908e-07
1.11055e-08
-1.46685e-07
1.33554e-08
-1.59492e-07
2.85418e-08
-1.65542e-07
1.84079e-08
-1.72245e-07
1.65707e-08
-1.51033e-07
7.95753e-09
-1.79488e-07
9.93298e-09
-1.64964e-08
-1.36099e-07
-6.24122e-08
-1.60895e-07
5.84107e-08
-1.42701e-07
-4.96052e-08
-1.31722e-07
-2.36194e-08
-1.26531e-07
-1.46859e-08
-1.41455e-07
1.44639e-11
-1.47433e-07
7.91828e-09
-1.61539e-07
-1.49146e-09
-1.83063e-07
2.47111e-10
-8.51797e-08
1.56437e-08
-1.91879e-07
-7.67456e-08
-1.92148e-07
3.88956e-08
-1.87563e-07
-3.88038e-09
-1.87684e-07
-1.609e-08
-4.72967e-08
-3.384e-08
-1.65658e-07
-8.39277e-09
-1.57597e-07
-5.60731e-09
-1.616e-07
9.5798e-09
-1.87983e-07
2.13986e-08
-3.95918e-08
-1.25523e-08
-1.55986e-07
9.16785e-09
-1.51781e-07
-5.32999e-09
-1.44616e-07
-1.546e-08
-1.21033e-07
-4.39757e-08
-1.46637e-07
1.74419e-08
-1.30701e-07
-2.32482e-08
-1.2373e-07
-7.11873e-09
-1.24134e-07
3.51532e-09
-1.24534e-07
6.30292e-09
-1.31167e-07
1.08098e-08
-1.41596e-07
2.67617e-08
-4.17443e-08
2.7436e-08
-1.63147e-07
-5.35984e-08
-1.48379e-07
-8.32272e-09
-1.37078e-07
1.2919e-08
-1.20588e-07
-1.09467e-08
-1.10967e-07
6.82099e-11
-1.15305e-07
4.80923e-09
-1.25374e-07
6.31836e-09
-1.31652e-07
6.12348e-09
-6.67888e-08
9.10376e-09
-1.71457e-07
-5.08005e-08
-1.60135e-07
-2.60132e-08
-1.58471e-07
-1.84176e-08
-1.58327e-07
-1.23108e-08
-1.60757e-07
-1.27143e-08
-1.57713e-07
-3.83432e-08