/*--------------------------------*- C++ -*----------------------------------*\
  =========                 |
  \\      /  F ield         | OpenFOAM: The Open Source CFD Toolbox
   \\    /   O peration     | Website:  https://openfoam.org
    \\  /    A nd           | Version:  12
     \\/     M anipulation  |
\*---------------------------------------------------------------------------*/
FoamFile
{
    format      ascii;
    class       volVectorField;
    location    "0.45";
    object      U.water;
}
// * * * * * * * * * * * * * * * * * * * * * * * * * * * * * * * * * * * * * //

dimensions      [0 1 -1 0 0 0 0];

internalField   nonuniform List<vector> 
3750
(
(0.00318888 -0.035449 0)
(-0.00511501 -0.010547 0)
(-0.00765766 -0.0099404 0)
(-0.00355972 0.00353572 0)
(-0.00108998 0.000180641 0)
(-0.000127101 0.00513441 0)
(0.000711626 0.00407957 0)
(0.0021843 0.0062442 0)
(0.00182556 0.0115056 0)
(-0.000376051 0.0117795 0)
(-6.62327e-05 0.00776498 0)
(0.000560046 0.00941771 0)
(-0.000769389 0.00960178 0)
(-0.000243747 0.0101959 0)
(-0.000878487 0.00988893 0)
(-0.000398018 0.00979838 0)
(-0.000807899 0.0104412 0)
(-0.000363087 0.0106521 0)
(-0.000785048 0.01259 0)
(-0.000833654 0.0132305 0)
(0.000312902 0.0132581 0)
(-1.29038e-05 0.0137257 0)
(0.000797119 0.0116523 0)
(0.000928781 0.0105748 0)
(0.000479099 0.00931892 0)
(0.00136786 0.0153726 0)
(-0.00281666 0.0159161 0)
(-0.000764931 0.0122527 0)
(0.000310463 0.0145749 0)
(0.000553296 0.0131319 0)
(0.000518163 0.012053 0)
(-0.000324736 0.01101 0)
(0.000611669 0.0101535 0)
(0.000239478 0.0122885 0)
(-1.74673e-05 0.0135969 0)
(-1.6225e-05 0.0143015 0)
(-0.000121838 0.0145682 0)
(1.27833e-05 0.0146391 0)
(-0.00079371 0.014969 0)
(-0.000989737 0.0144995 0)
(-0.00111968 0.0143357 0)
(-0.000437898 0.0155046 0)
(-0.000172152 0.0181304 0)
(0.000153232 0.0218314 0)
(0.00111662 0.0222371 0)
(0.00166004 0.0218966 0)
(0.00116663 0.0205855 0)
(0.000920017 0.0167536 0)
(0.00100361 0.0134672 0)
(0.00157589 0.0104663 0)
(0.00192172 0.0140927 0)
(-0.00187393 0.0134698 0)
(-0.0010226 0.0091142 0)
(-0.000413082 0.010279 0)
(-0.000557892 0.0105627 0)
(-0.00100281 0.011943 0)
(0.00148542 0.013337 0)
(0.0021503 0.0113406 0)
(0.00132373 0.0123015 0)
(0.000245288 0.0117716 0)
(-0.000291907 0.0128276 0)
(0.000572636 0.0134894 0)
(-0.000150879 0.0122544 0)
(0.000292762 0.0103308 0)
(-8.30479e-05 0.00937227 0)
(-0.000961143 0.00953923 0)
(-0.00185973 0.00818441 0)
(-0.0017552 0.00877708 0)
(-0.000661213 0.00946808 0)
(-0.000536085 0.00911569 0)
(4.53999e-05 0.010534 0)
(0.00045189 0.0108169 0)
(0.000570041 0.0101188 0)
(-0.000781055 0.0102813 0)
(-0.000664133 0.0102218 0)
(0.00643176 -0.0264321 0)
(-0.00992257 -0.000285009 0)
(-0.00623343 -0.0108057 0)
(-0.0048513 -0.00450298 0)
(-0.00139714 -0.0096491 0)
(-0.00299757 -0.00479726 0)
(0.000454719 -0.00518288 0)
(-0.000975438 -0.00310899 0)
(-0.00171755 -0.000840511 0)
(-0.00372966 0.00287205 0)
(-0.00243428 0.00263172 0)
(-0.00284116 0.00300651 0)
(-0.00044102 0.00319262 0)
(0.000902892 0.00468291 0)
(0.000743339 0.00333886 0)
(-0.000139399 0.00176209 0)
(-0.000585895 0.0003665 0)
(-0.00118739 0.000550648 0)
(-0.00130141 0.000972333 0)
(-0.00182553 0.00225307 0)
(0.00192329 0.00260221 0)
(0.000318012 0.00368874 0)
(0.00267282 0.00420255 0)
(0.0022656 0.00355161 0)
(0.00239285 0.00266003 0)
(0.00172326 0.00185869 0)
(-0.00372561 0.0016118 0)
(-0.00480834 -0.000811489 0)
(0.0017339 0.00104369 0)
(0.000676657 -0.000183146 0)
(0.000730802 -0.000478279 0)
(0.000599062 -0.000722587 0)
(-0.000461128 -0.000306532 0)
(-0.00350174 0.00217908 0)
(-0.000755917 0.00250885 0)
(0.000887361 0.00197439 0)
(-0.00077857 0.000853308 0)
(0.000578911 0.000676019 0)
(0.00200199 0.000506256 0)
(0.00120001 -0.000273469 0)
(-0.000782772 0.000626107 0)
(-0.0032712 0.00189673 0)
(-0.00633524 0.00670741 0)
(-0.00233705 0.0110917 0)
(-0.00134312 0.0133319 0)
(0.00192047 0.0151577 0)
(0.00314548 0.0139066 0)
(0.00463506 0.0102957 0)
(0.00497789 0.010286 0)
(0.00371716 0.0084442 0)
(0.0014752 0.00424289 0)
(-0.00273303 0.002718 0)
(-0.00103763 0.00169299 0)
(0.000129222 0.00245909 0)
(-0.000425375 0.00231022 0)
(-0.00124543 0.00730403 0)
(-0.00290798 0.0107872 0)
(0.000463834 0.008722 0)
(-0.00201033 0.00919756 0)
(-0.00289799 0.00886334 0)
(-0.00190085 0.0108137 0)
(-0.000785998 0.0104922 0)
(0.00100094 0.00782499 0)
(0.00303352 0.00646884 0)
(0.00264072 0.00462152 0)
(0.00142159 0.00445851 0)
(-0.00135721 0.00260658 0)
(0.00201638 0.00304691 0)
(0.00212925 -0.000318639 0)
(-0.000189166 -0.00372647 0)
(-0.00116321 -0.00090868 0)
(-0.000986654 0.000572746 0)
(-0.00191072 0.000143919 0)
(0.000354578 0.00172615 0)
(-0.000410386 0.00149836 0)
(0.000772322 -0.0236434 0)
(-0.00947202 -0.00150206 0)
(-0.00686202 -0.00953148 0)
(-0.00752515 -0.00914236 0)
(-0.00353372 -0.0108554 0)
(-0.000341207 -0.00646249 0)
(-0.000802587 -0.00657952 0)
(-0.00127278 -0.00789535 0)
(-0.0036702 -0.00339953 0)
(-0.00429109 -0.00203629 0)
(-0.00580162 -0.00698106 0)
(-0.00169507 -0.00932767 0)
(-0.000732895 -0.0120238 0)
(0.000473731 -0.0148309 0)
(0.00185791 -0.013816 0)
(0.00132378 -0.0116429 0)
(-0.000786574 -0.00977263 0)
(1.29411e-05 -0.0105087 0)
(-0.000804154 -0.0136123 0)
(-0.00132063 -0.0119881 0)
(-0.000623059 -0.0134632 0)
(-0.000714443 -0.0138968 0)
(-0.000238083 -0.0122462 0)
(0.000458282 -0.0134937 0)
(0.00520735 -0.013004 0)
(0.00325522 -0.0141098 0)
(0.000323631 -0.0161981 0)
(-0.00169812 -0.0128032 0)
(-0.00194776 -0.0124913 0)
(0.000584633 -0.0160722 0)
(-0.000376265 -0.0133214 0)
(-0.000716117 -0.0127154 0)
(-0.000301758 -0.0141428 0)
(0.000188407 -0.00945245 0)
(-0.000155732 -0.00728449 0)
(-0.000127511 -0.011943 0)
(-0.000769855 -0.0127822 0)
(-0.000176941 -0.00846134 0)
(-0.00032262 -0.00590277 0)
(-0.00103266 -0.0054231 0)
(-0.00349804 -0.00280734 0)
(-0.00561474 -0.00286606 0)
(-0.00778766 0.00136706 0)
(-0.007004 0.00316803 0)
(-0.00522038 -0.000100076 0)
(-0.000461668 0.0021961 0)
(0.00423481 0.00565317 0)
(0.00731821 0.00352996 0)
(0.0103643 0.00502138 0)
(0.00606519 0.00197596 0)
(0.00372245 -0.00210898 0)
(-0.00103079 -0.00449922 0)
(-0.00139405 -0.00532315 0)
(-0.00165266 -0.00521172 0)
(-0.00209148 -0.00591383 0)
(-0.00197094 -0.00412369 0)
(-0.002082 0.000198622 0)
(-0.00107369 -0.00348565 0)
(-0.000531608 -0.00968108 0)
(0.00113655 -0.00938193 0)
(0.0031348 -0.00664727 0)
(0.00274473 -0.00427262 0)
(0.00161687 -0.00251009 0)
(0.000805199 -0.00519822 0)
(0.00181701 -0.0084567 0)
(0.00261698 -0.00987171 0)
(0.00240965 -0.00652349 0)
(0.00455673 -0.00229248 0)
(-1.98714e-05 -0.00664386 0)
(-0.00208345 -0.00970879 0)
(-0.00359019 -0.00713267 0)
(-0.00392077 -0.00810173 0)
(-0.00159842 -0.00953428 0)
(0.000495783 -0.00910475 0)
(0.000475414 -0.00946812 0)
(-0.00244224 -0.0278638 0)
(-0.00411822 -0.0031431 0)
(-0.00924779 -0.0161044 0)
(-0.0081208 -0.0115114 0)
(-0.0059337 -0.0115353 0)
(-0.00337079 -0.00813784 0)
(-0.00352885 -0.00811111 0)
(-0.000677647 -0.00545261 0)
(0.00150878 -0.00393291 0)
(-0.00117707 -0.00352262 0)
(-0.000852589 -0.00428639 0)
(0.00195186 -0.00804986 0)
(0.000424158 -0.0151229 0)
(0.000323141 -0.0144595 0)
(-0.000551065 -0.0159951 0)
(-0.000825901 -0.0172499 0)
(-0.00194633 -0.0137733 0)
(-0.000256112 -0.0145166 0)
(0.00291152 -0.0198874 0)
(0.00416859 -0.0206879 0)
(0.00125837 -0.0216758 0)
(0.00246474 -0.0224227 0)
(-0.0013755 -0.0229155 0)
(-0.00109543 -0.0194666 0)
(0.000419681 -0.0164828 0)
(0.000720514 -0.018554 0)
(0.000643836 -0.0168229 0)
(-0.000142757 -0.0144174 0)
(-0.00324238 -0.0118932 0)
(0.000297183 -0.0135778 0)
(-0.00173282 -0.0177149 0)
(-0.00275943 -0.0164298 0)
(-0.000871639 -0.0159813 0)
(0.000900079 -0.0153124 0)
(-0.00312478 -0.012151 0)
(-0.00232855 -0.0118746 0)
(-0.002748 -0.0115946 0)
(-0.0018958 -0.00995192 0)
(-0.00413367 -0.00878078 0)
(-0.00254137 -0.00788387 0)
(-0.0029184 -0.00593461 0)
(-0.00458342 -0.00624316 0)
(-0.00393507 -0.00718375 0)
(-0.00881383 -0.00549563 0)
(-0.00761878 -0.00784338 0)
(-0.00143914 -0.00978195 0)
(0.00398982 -0.0093396 0)
(0.00986458 -0.00692627 0)
(0.0092157 -0.00739282 0)
(0.007663 -0.0113657 0)
(0.00404269 -0.0110534 0)
(0.00155904 -0.00947723 0)
(0.000690453 -0.00985869 0)
(0.000769191 -0.0116802 0)
(-4.70191e-05 -0.0146543 0)
(0.00130388 -0.0116221 0)
(-0.00154223 -0.0104915 0)
(-0.00247086 -0.015555 0)
(-0.0010988 -0.0177797 0)
(-7.67764e-05 -0.0163868 0)
(0.0013057 -0.0124976 0)
(-0.00011531 -0.00942742 0)
(-0.00158198 -0.00690931 0)
(-0.00316353 -0.00506293 0)
(0.00304669 -0.00847372 0)
(0.00288192 -0.0119429 0)
(0.00225064 -0.0104759 0)
(0.00348533 -0.00883188 0)
(-0.00135907 -0.010371 0)
(-0.00149619 -0.0104985 0)
(-0.00310864 -0.0112124 0)
(-0.00190557 -0.0119158 0)
(0.0023067 -0.0137369 0)
(0.00100363 -0.0159141 0)
(0.00125874 -0.0113047 0)
(0.000477277 -0.0226959 0)
(-0.00753426 -0.00261165 0)
(-0.00871564 -0.015866 0)
(-0.00679967 -0.0107002 0)
(-0.00558706 -0.0136975 0)
(-0.0078985 -0.0105979 0)
(-0.00352147 -0.00975009 0)
(-0.0051724 -0.00753861 0)
(-0.00157046 -0.0065731 0)
(-0.00160502 -0.00385909 0)
(0.000284951 -0.000962925 0)
(0.00088219 -0.000369394 0)
(0.0040134 -0.00211701 0)
(0.00366792 -0.00273374 0)
(0.00181255 -0.00290569 0)
(0.00367227 -0.00611997 0)
(0.00443371 -0.0102797 0)
(0.000142288 -0.0116984 0)
(0.000724916 -0.0136111 0)
(0.00106778 -0.0146622 0)
(-0.000164011 -0.0131751 0)
(0.00035875 -0.0128116 0)
(0.00028056 -0.0125203 0)
(0.000862697 -0.0106241 0)
(-0.00204753 -0.0112893 0)
(-0.00262785 -0.0111654 0)
(1.82699e-05 -0.0113609 0)
(0.00196827 -0.00901858 0)
(-0.000477161 -0.00594021 0)
(-0.00199349 -0.0111576 0)
(-0.00268801 -0.0157433 0)
(-0.00184196 -0.0135514 0)
(-0.00138442 -0.013103 0)
(-0.00169164 -0.0136183 0)
(-0.00321352 -0.0108928 0)
(-0.00382687 -0.0100012 0)
(-0.00277195 -0.0116821 0)
(-0.00224761 -0.01106 0)
(-0.00197632 -0.0102296 0)
(-0.00202932 -0.00991742 0)
(-0.00211725 -0.0117047 0)
(-0.00408022 -0.0118483 0)
(-0.00405881 -0.011574 0)
(-0.00531173 -0.0126189 0)
(-0.00650706 -0.0143995 0)
(0.00106708 -0.0169397 0)
(0.00857836 -0.0136401 0)
(0.00902548 -0.0135317 0)
(0.00408918 -0.0141714 0)
(0.00443378 -0.012479 0)
(0.00179621 -0.0128115 0)
(0.000827024 -0.0113326 0)
(8.04034e-05 -0.0107293 0)
(0.00112423 -0.0109099 0)
(0.00264016 -0.0106667 0)
(0.00355542 -0.0105706 0)
(-0.00146774 -0.0066424 0)
(-0.00270696 -0.00801396 0)
(-0.00282962 -0.0143551 0)
(0.000527892 -0.0143658 0)
(0.00225007 -0.0158322 0)
(0.00230814 -0.0167062 0)
(0.00227273 -0.0147897 0)
(0.000250929 -0.0101421 0)
(-0.00087762 -0.012435 0)
(0.0036615 -0.0199812 0)
(0.00231553 -0.0135529 0)
(0.000983815 -0.0112887 0)
(-0.00050211 -0.0161264 0)
(-0.00171742 -0.016588 0)
(-0.00228219 -0.0135374 0)
(-0.00174249 -0.0102694 0)
(-0.0030041 -0.0133152 0)
(0.00191506 -0.0170061 0)
(0.00319595 -0.0172171 0)
(0.00221958 -0.0271118 0)
(-0.0095564 -0.00161719 0)
(-0.00723831 -0.0152991 0)
(-0.0053874 -0.00956165 0)
(-0.00482605 -0.0156033 0)
(-0.00465461 -0.0102475 0)
(-0.00428378 -0.00832721 0)
(-0.00589796 -0.00938076 0)
(-0.00467835 -0.0100583 0)
(-0.00486909 -0.0131487 0)
(-0.00106437 -0.0102093 0)
(-0.000427751 -0.00845549 0)
(0.000329258 -0.0115015 0)
(0.00307782 -0.0122593 0)
(0.00511142 -0.0101652 0)
(0.00579561 -0.00954602 0)
(0.00549266 -0.0130455 0)
(0.00362252 -0.0133922 0)
(0.000593758 -0.0126204 0)
(-0.000151535 -0.0133259 0)
(-0.000337679 -0.0123036 0)
(0.00240769 -0.011523 0)
(0.000670007 -0.0117526 0)
(2.06526e-05 -0.0125193 0)
(0.000400025 -0.0132152 0)
(0.000759354 -0.00951164 0)
(0.00151851 -0.00511842 0)
(0.00288704 -0.007099 0)
(-0.000648892 -0.00833395 0)
(-0.00326988 -0.0095688 0)
(-0.00357078 -0.0107816 0)
(-0.00240446 -0.00778196 0)
(-0.00401529 -0.00693671 0)
(-0.00333372 -0.0081952 0)
(-0.00112411 -0.00822398 0)
(-0.00411947 -0.00889646 0)
(-0.00300882 -0.0113639 0)
(-0.00179555 -0.0120185 0)
(-8.8146e-05 -0.0119368 0)
(-0.00372782 -0.0116246 0)
(-0.00256777 -0.0110316 0)
(-0.00178896 -0.0126193 0)
(-0.00430064 -0.0153879 0)
(-0.00371601 -0.0183045 0)
(-0.00336158 -0.0172141 0)
(0.00178618 -0.015135 0)
(0.00848777 -0.0176992 0)
(0.00633632 -0.0221835 0)
(0.00434961 -0.0175788 0)
(0.00241252 -0.0148391 0)
(0.0017643 -0.017829 0)
(0.00126813 -0.0180586 0)
(0.00100902 -0.0172342 0)
(0.000464743 -0.0173024 0)
(0.00129545 -0.0186777 0)
(0.000861818 -0.0181875 0)
(0.000751218 -0.0154587 0)
(-0.0033631 -0.0157813 0)
(-0.00270572 -0.0158637 0)
(0.00236628 -0.0151907 0)
(0.00350381 -0.017235 0)
(0.00406066 -0.0166406 0)
(0.00509096 -0.0162234 0)
(0.00269196 -0.015425 0)
(-0.00394336 -0.0110315 0)
(0.00150463 -0.0129085 0)
(0.00248232 -0.0162246 0)
(-0.000871177 -0.0151321 0)
(2.28553e-05 -0.0171087 0)
(-2.32302e-05 -0.0172673 0)
(0.000898434 -0.0170536 0)
(-0.00149466 -0.0186082 0)
(-0.00137786 -0.0150036 0)
(0.00198624 -0.015526 0)
(0.000805928 -0.0189242 0)
(0.00391177 -0.0428379 0)
(-0.0102044 -0.0030567 0)
(-0.00723513 -0.0159757 0)
(-0.00790526 -0.0123638 0)
(-0.00716809 -0.0167445 0)
(-0.00412811 -0.0143058 0)
(-0.00426436 -0.0149865 0)
(-0.0025073 -0.0158357 0)
(-0.00332469 -0.0175629 0)
(-0.00404176 -0.0160112 0)
(0.00169122 -0.0132461 0)
(-0.00100071 -0.0153919 0)
(0.00241439 -0.0158561 0)
(0.0048537 -0.0149994 0)
(0.00695613 -0.0124149 0)
(0.00261637 -0.0113503 0)
(0.00144708 -0.0114859 0)
(0.00197174 -0.0123061 0)
(0.00113565 -0.012888 0)
(0.000966215 -0.0111651 0)
(0.00111981 -0.00685185 0)
(-9.73004e-05 -0.00884257 0)
(-0.00226229 -0.0130923 0)
(-0.000986271 -0.0101486 0)
(-6.87182e-06 -0.00950405 0)
(0.00186163 -0.00928584 0)
(1.58128e-05 -0.00742287 0)
(-0.000858709 -0.00790992 0)
(-0.000758328 -0.00828173 0)
(-0.000934562 -0.00960029 0)
(0.000341865 -0.00777807 0)
(0.00135431 -0.00505111 0)
(-0.00309862 -0.0041146 0)
(-0.00766295 -0.00162025 0)
(-0.00466214 -0.00476853 0)
(-0.00421711 -0.00908684 0)
(-0.00225998 -0.0108472 0)
(-0.00234724 -0.0108017 0)
(0.00139437 -0.011555 0)
(-0.000806445 -0.00977899 0)
(-0.00230422 -0.00690407 0)
(-0.00235065 -0.0111774 0)
(-0.00211227 -0.0136014 0)
(-0.00155688 -0.0140655 0)
(0.00150831 -0.0151794 0)
(0.00447662 -0.0140476 0)
(0.00339837 -0.0151764 0)
(0.00411592 -0.0174311 0)
(0.00313883 -0.016444 0)
(0.000183319 -0.0149352 0)
(0.000838777 -0.0161761 0)
(0.00301928 -0.0167336 0)
(0.00247954 -0.0156113 0)
(0.00127255 -0.0138938 0)
(0.000926243 -0.0127713 0)
(0.00033569 -0.0133629 0)
(-0.000998466 -0.0133776 0)
(-0.00269178 -0.0143844 0)
(-0.00232462 -0.0127351 0)
(-0.000849682 -0.012234 0)
(0.00105037 -0.016399 0)
(0.00383149 -0.0141792 0)
(0.00358578 -0.0139832 0)
(0.00235338 -0.0169166 0)
(0.00175648 -0.0109505 0)
(-0.00134866 -0.0107083 0)
(0.000782412 -0.0148926 0)
(0.000394516 -0.0146897 0)
(0.000719907 -0.0160842 0)
(0.000705009 -0.0163956 0)
(0.000185662 -0.0163518 0)
(-0.00106977 -0.0140184 0)
(0.0033077 -0.00962251 0)
(-9.54697e-05 -0.0125989 0)
(0.000154421 -0.013033 0)
(0.00311993 -0.0265384 0)
(-0.0069801 -0.00626564 0)
(-0.0073198 -0.0172116 0)
(-0.00598457 -0.0163941 0)
(-0.00421855 -0.0209933 0)
(-0.0012995 -0.0214733 0)
(-0.00119381 -0.0235813 0)
(-0.00164214 -0.0249978 0)
(-0.00459879 -0.0258742 0)
(-0.00477837 -0.0208951 0)
(-0.0059859 -0.0195354 0)
(-0.00313326 -0.0212478 0)
(0.000751525 -0.0160259 0)
(0.00366327 -0.0136908 0)
(0.00509791 -0.0125857 0)
(0.00469545 -0.011869 0)
(0.00354235 -0.0117023 0)
(0.00297883 -0.01152 0)
(0.00109256 -0.0112218 0)
(0.00222829 -0.0100658 0)
(0.00196045 -0.00938514 0)
(-0.00165717 -0.0110457 0)
(-0.000577745 -0.0113977 0)
(0.000253817 -0.0114612 0)
(-0.000244461 -0.0122906 0)
(0.000481914 -0.0112979 0)
(0.000101283 -0.0101152 0)
(0.000293547 -0.00973992 0)
(3.67477e-05 -0.00982746 0)
(-0.000385501 -0.0103064 0)
(-5.35021e-05 -0.00817347 0)
(-0.00367895 -0.00657462 0)
(-0.00485463 -0.00643044 0)
(-0.00545184 -0.00214736 0)
(-0.00628146 -0.00335508 0)
(-0.00335707 -0.0119652 0)
(-0.00125942 -0.0157508 0)
(0.000368596 -0.0122973 0)
(0.00188477 -0.0113189 0)
(0.0027598 -0.0148543 0)
(-0.00109025 -0.0132414 0)
(-0.00486799 -0.013691 0)
(-0.00351142 -0.0145365 0)
(-0.0033792 -0.0152348 0)
(-0.000246614 -0.0134513 0)
(0.00372594 -0.0131923 0)
(0.00442921 -0.0136913 0)
(0.00414341 -0.0141729 0)
(0.00601622 -0.0116903 0)
(0.00251276 -0.0103501 0)
(0.000750653 -0.0117561 0)
(-0.000971346 -0.0149763 0)
(-0.000111154 -0.0167613 0)
(-0.000350261 -0.0149343 0)
(-0.00114089 -0.0133278 0)
(-0.000135952 -0.0125501 0)
(0.00026659 -0.012046 0)
(0.000579327 -0.0130918 0)
(0.00257133 -0.0141442 0)
(-0.00020336 -0.0156544 0)
(-0.000485872 -0.015891 0)
(0.00466601 -0.0152923 0)
(0.003933 -0.0165784 0)
(0.00276472 -0.0156628 0)
(0.00319861 -0.0132605 0)
(-0.00233066 -0.0129869 0)
(-0.00144171 -0.0135523 0)
(0.000615853 -0.014889 0)
(0.00124317 -0.0162402 0)
(0.00101978 -0.0162712 0)
(0.000508703 -0.0151672 0)
(0.000549117 -0.0099935 0)
(0.00385529 -0.00935195 0)
(0.000130521 -0.0136714 0)
(0.000698533 -0.0138332 0)
(0.00317432 -0.0332131 0)
(-0.00378174 -0.00677457 0)
(-0.00408287 -0.0205735 0)
(-0.00254617 -0.0178882 0)
(-0.0013298 -0.0212957 0)
(-0.0011027 -0.0213343 0)
(-0.00188941 -0.0228886 0)
(-0.00129692 -0.0227027 0)
(-0.00277699 -0.0239499 0)
(-0.00365846 -0.0236297 0)
(-0.0082389 -0.0234054 0)
(-0.0047735 -0.024001 0)
(-0.00378411 -0.0217393 0)
(-0.000344546 -0.0186948 0)
(0.00151791 -0.0177276 0)
(0.0028909 -0.017344 0)
(0.00240982 -0.0154423 0)
(0.00138995 -0.0151234 0)
(0.00192805 -0.0153676 0)
(0.00220313 -0.0139559 0)
(0.000239945 -0.0138814 0)
(0.000137324 -0.0124644 0)
(-0.00177968 -0.00873112 0)
(-0.00259123 -0.00522839 0)
(-0.00139886 -0.00454628 0)
(-0.00217229 -0.00402238 0)
(-0.00315858 -0.00129667 0)
(0.000694708 -0.000321641 0)
(0.00173671 -0.000907831 0)
(-9.41592e-05 -0.00177861 0)
(-0.000990259 -0.00426539 0)
(-0.00304278 -0.00670994 0)
(-0.00200634 -0.00752302 0)
(0.00012875 -0.00972514 0)
(-0.00134893 -0.0124804 0)
(-0.00162583 -0.0158982 0)
(-0.00184283 -0.016081 0)
(0.00175005 -0.0129944 0)
(-0.00173866 -0.0136352 0)
(-0.00026571 -0.0156681 0)
(-0.001091 -0.014778 0)
(-0.00276637 -0.0148262 0)
(-0.00213654 -0.016126 0)
(-0.00271085 -0.0193315 0)
(0.00213815 -0.0199699 0)
(0.000771018 -0.0194305 0)
(0.00412041 -0.0178962 0)
(0.00490223 -0.0140461 0)
(0.00404881 -0.0140218 0)
(0.00256094 -0.0142533 0)
(0.000637889 -0.0137045 0)
(-0.00305829 -0.0121318 0)
(0.00058813 -0.0122554 0)
(-0.00106005 -0.0145995 0)
(-0.00116267 -0.0137822 0)
(-0.000622855 -0.0137926 0)
(0.000310837 -0.0134463 0)
(0.000792645 -0.0121763 0)
(0.00169311 -0.0127513 0)
(0.000333493 -0.0144077 0)
(0.00207558 -0.0121079 0)
(0.000863502 -0.0103716 0)
(0.00171117 -0.0138424 0)
(0.00166955 -0.0134516 0)
(0.000499908 -0.011712 0)
(0.000634139 -0.0138052 0)
(-0.00181032 -0.0130318 0)
(0.000451584 -0.0127695 0)
(0.00142997 -0.0159821 0)
(0.0023819 -0.016776 0)
(0.00213049 -0.0160931 0)
(0.00178227 -0.00926744 0)
(-0.00133169 -0.0093026 0)
(-0.000932691 -0.0139346 0)
(-0.000164858 -0.0119856 0)
(0.00142861 -0.025261 0)
(-0.00184313 -0.00417055 0)
(-0.00196959 -0.0165447 0)
(-0.00239174 -0.0123612 0)
(-0.00111586 -0.0168367 0)
(-0.000757983 -0.0164777 0)
(-0.000815994 -0.0168071 0)
(-0.00166821 -0.0166064 0)
(-0.0022028 -0.0183113 0)
(-0.00485171 -0.017458 0)
(-0.00449768 -0.0144986 0)
(-0.00332115 -0.0144904 0)
(-0.00283843 -0.0167309 0)
(-0.00278244 -0.0158822 0)
(0.00384348 -0.0145456 0)
(0.00158647 -0.0140631 0)
(0.00125589 -0.0132055 0)
(0.00162552 -0.0125842 0)
(0.00263675 -0.011297 0)
(0.00082448 -0.0134287 0)
(-0.000530708 -0.0130145 0)
(-0.00235816 -0.0132071 0)
(-0.00343347 -0.0107843 0)
(-0.00395944 -0.00691253 0)
(-0.00218669 -0.0108453 0)
(-0.00363584 -0.015572 0)
(-0.00444554 -0.0108976 0)
(-0.00227239 -0.0090301 0)
(0.00168328 -0.0142036 0)
(0.000307611 -0.0143584 0)
(0.0017161 -0.0136845 0)
(0.00274786 -0.0139832 0)
(0.000130588 -0.0144169 0)
(-0.00143737 -0.0141271 0)
(-0.00173234 -0.0127092 0)
(-0.000228257 -0.0127317 0)
(0.000847657 -0.0114326 0)
(-0.000757606 -0.010638 0)
(-0.00185466 -0.0126545 0)
(-0.00149918 -0.0141096 0)
(-0.00203208 -0.0168222 0)
(-0.00170301 -0.018093 0)
(0.00248414 -0.0204722 0)
(0.000659352 -0.0187303 0)
(0.00108116 -0.0187949 0)
(4.37122e-05 -0.0211382 0)
(0.000960717 -0.0191121 0)
(0.00444429 -0.0205531 0)
(0.00153251 -0.0163425 0)
(0.000807618 -0.011223 0)
(-0.000396523 -0.0120769 0)
(-0.00128535 -0.00947395 0)
(-0.00144038 -0.00934641 0)
(-0.0016106 -0.0134609 0)
(-0.00147466 -0.0122554 0)
(-0.00248735 -0.0107504 0)
(0.00178284 -0.00891184 0)
(0.00114304 -0.00944844 0)
(0.00190645 -0.0112979 0)
(0.00267279 -0.0104662 0)
(0.00414652 -0.00872335 0)
(0.000860305 -0.00851469 0)
(0.00106887 -0.00942982 0)
(0.00233222 -0.0115931 0)
(0.0011981 -0.0101527 0)
(0.000493851 -0.0118 0)
(0.000449916 -0.0132421 0)
(-0.00214636 -0.0121361 0)
(0.00249167 -0.0148696 0)
(0.00188757 -0.0150619 0)
(0.00250472 -0.0135925 0)
(0.00215389 -0.0111532 0)
(-0.00268744 -0.00984986 0)
(0.00124015 -0.0113476 0)
(0.00172939 -0.0131126 0)
(0.00174219 -0.0304896 0)
(-0.00155832 -0.00554505 0)
(-0.0015877 -0.0175478 0)
(0.000520037 -0.00962037 0)
(0.000327925 -0.0107847 0)
(0.00042023 -0.00991563 0)
(-0.000453344 -0.0114373 0)
(-0.00199625 -0.0106366 0)
(-0.00314153 -0.0113102 0)
(-0.00218227 -0.00976832 0)
(-0.0022873 -0.00894558 0)
(-0.0045062 -0.0137503 0)
(-0.000801866 -0.0177829 0)
(-0.00228723 -0.012247 0)
(0.00189485 -0.010771 0)
(0.00134911 -0.0147798 0)
(-0.00145422 -0.011416 0)
(0.000803525 -0.00871638 0)
(0.00231147 -0.0086182 0)
(0.000830739 -0.00764595 0)
(0.00131792 -0.00797677 0)
(-0.000372294 -0.0108325 0)
(0.00221788 -0.011431 0)
(-0.00218158 -0.0107588 0)
(-0.0012691 -0.0136821 0)
(-0.00159273 -0.0176508 0)
(0.000298062 -0.014525 0)
(-0.00328353 -0.0109575 0)
(-0.00193363 -0.0152053 0)
(-0.000612489 -0.0175942 0)
(-0.000240018 -0.0154274 0)
(-0.000466466 -0.0165989 0)
(-0.00155636 -0.0170138 0)
(-0.0029781 -0.0147284 0)
(-0.00112481 -0.0133475 0)
(0.000187891 -0.0143078 0)
(-0.000312497 -0.0161669 0)
(-0.00205209 -0.015576 0)
(0.000467693 -0.0168333 0)
(0.00109116 -0.0183807 0)
(0.00160262 -0.0189058 0)
(0.000984077 -0.0149725 0)
(0.00147486 -0.015768 0)
(0.00188691 -0.0185676 0)
(-0.00177018 -0.017411 0)
(0.000980946 -0.0175381 0)
(0.000911105 -0.0130372 0)
(0.00242531 -0.0139437 0)
(0.00415626 -0.0162784 0)
(0.00198123 -0.014126 0)
(-0.000183058 -0.0136993 0)
(0.00135519 -0.0129948 0)
(-0.00315671 -0.0130313 0)
(-0.00350547 -0.0138967 0)
(-0.000759693 -0.0129268 0)
(0.000793851 -0.00954912 0)
(-0.000448716 -0.0114033 0)
(-0.00093253 -0.0155402 0)
(0.000873744 -0.0135976 0)
(0.00264674 -0.0119183 0)
(0.00217942 -0.0113267 0)
(0.000443596 -0.00961935 0)
(0.00123121 -0.00870564 0)
(0.00349719 -0.0110673 0)
(0.00232157 -0.0131388 0)
(0.000707059 -0.0138857 0)
(0.00311192 -0.014616 0)
(0.000141797 -0.0107757 0)
(0.000304752 -0.0113025 0)
(0.000912633 -0.0149718 0)
(0.000780475 -0.0130084 0)
(-0.000648454 -0.01245 0)
(-0.00196363 -0.0102168 0)
(0.000867495 -0.00989887 0)
(-0.000280425 -0.0115323 0)
(0.00316613 -0.0320837 0)
(-0.00403826 -0.00607248 0)
(-0.00474536 -0.0137972 0)
(-0.000303875 -0.00707439 0)
(-0.000439251 -0.0126501 0)
(-0.000439591 -0.00942339 0)
(-0.000517225 -0.00986221 0)
(-0.00135567 -0.0102813 0)
(-0.00264606 -0.0101795 0)
(-0.000193418 -0.0104364 0)
(-0.00281681 -0.012879 0)
(-0.00366075 -0.0106094 0)
(-0.00187545 -0.0126527 0)
(-0.000315227 -0.0113873 0)
(-0.00212738 -0.00951276 0)
(0.000911757 -0.0153829 0)
(9.77924e-05 -0.0115722 0)
(-0.00193963 -0.00701391 0)
(-0.000858521 -0.010475 0)
(0.000770794 -0.0141943 0)
(0.00144226 -0.0147679 0)
(0.000607833 -0.0146334 0)
(0.000850172 -0.0166711 0)
(-0.000112196 -0.0132228 0)
(-0.00146201 -0.0113111 0)
(-1.53411e-05 -0.0153281 0)
(0.00175879 -0.0143205 0)
(-0.00162382 -0.0134214 0)
(-0.00490428 -0.0144077 0)
(0.000140296 -0.0167321 0)
(0.000808163 -0.0176542 0)
(0.000300038 -0.0185097 0)
(0.000279364 -0.0186753 0)
(-0.00227667 -0.0153157 0)
(0.000682546 -0.0131284 0)
(-0.000477732 -0.0199415 0)
(-0.00133575 -0.0251863 0)
(-0.00301441 -0.0230966 0)
(0.000736053 -0.0221193 0)
(-0.000129541 -0.0232109 0)
(-0.000195061 -0.0224495 0)
(0.00276054 -0.0188315 0)
(-0.000377302 -0.0169419 0)
(0.00124638 -0.018668 0)
(0.000746027 -0.018426 0)
(0.000712237 -0.0180724 0)
(0.00157564 -0.0171763 0)
(-0.000855535 -0.0156957 0)
(0.00220443 -0.0151796 0)
(0.000299207 -0.0136968 0)
(-0.00139163 -0.0114229 0)
(0.000988583 -0.0123361 0)
(-6.3911e-06 -0.0153261 0)
(5.49473e-05 -0.0112092 0)
(-0.000324285 -0.00714291 0)
(0.000406255 -0.0108581 0)
(-0.0020616 -0.0143077 0)
(-0.00272189 -0.0131377 0)
(-8.89488e-05 -0.0126929 0)
(0.00158073 -0.0126497 0)
(0.0020863 -0.0129386 0)
(0.00469125 -0.0106864 0)
(0.00134138 -0.00854236 0)
(0.00365851 -0.0131534 0)
(0.00116966 -0.0163899 0)
(-0.000895018 -0.013342 0)
(0.00209793 -0.0138491 0)
(0.00175162 -0.0139376 0)
(-0.000703499 -0.0140681 0)
(0.000278216 -0.0145662 0)
(0.000763765 -0.0147518 0)
(0.000691404 -0.0139299 0)
(0.00123909 -0.00981689 0)
(-0.000260455 -0.0115814 0)
(0.0012944 -0.0165289 0)
(-0.000353316 -0.0272086 0)
(-0.00174156 -0.00442128 0)
(-0.00267536 -0.0143769 0)
(-0.00149276 -0.00620646 0)
(-0.00125296 -0.0126896 0)
(0.000300139 -0.0101785 0)
(-0.00131169 -0.0115873 0)
(-0.000412385 -0.011646 0)
(-0.000464846 -0.00963839 0)
(-0.00237489 -0.00881985 0)
(-0.00231595 -0.00911661 0)
(-9.83536e-05 -0.00866468 0)
(-0.00362217 -0.0095857 0)
(-0.000861251 -0.00874621 0)
(-0.00201481 -0.00741973 0)
(0.00222953 -0.010449 0)
(0.00288201 -0.0127152 0)
(-0.000632023 -0.0111779 0)
(-0.00122892 -0.0110206 0)
(0.000699447 -0.0135055 0)
(0.00229936 -0.0148793 0)
(0.000289729 -0.0149603 0)
(0.00191395 -0.0144572 0)
(0.00167251 -0.012261 0)
(-0.00328363 -0.012512 0)
(0.000397199 -0.0142625 0)
(0.00044979 -0.0161618 0)
(-0.000194985 -0.0183483 0)
(-0.00237859 -0.0139322 0)
(-0.00329373 -0.0124593 0)
(0.000757162 -0.0159916 0)
(-0.000742456 -0.0167088 0)
(0.00268524 -0.0179161 0)
(0.00220214 -0.0138565 0)
(0.000140337 -0.0130504 0)
(-0.00229426 -0.019642 0)
(-0.000774449 -0.022134 0)
(-2.09291e-05 -0.018345 0)
(-0.000712011 -0.0188486 0)
(0.000499961 -0.0222806 0)
(-0.000665823 -0.0196106 0)
(-0.000352138 -0.0179272 0)
(-0.00125995 -0.0181762 0)
(0.000829629 -0.0168103 0)
(0.000937282 -0.0151273 0)
(0.000480567 -0.0137539 0)
(8.91942e-05 -0.0134855 0)
(-0.00177233 -0.0124896 0)
(0.00139842 -0.0128219 0)
(0.000746608 -0.0147044 0)
(-0.000601151 -0.0106151 0)
(-0.00187345 -0.00819649 0)
(0.00210548 -0.0111059 0)
(0.00206393 -0.0122573 0)
(-0.000543272 -0.0119118 0)
(-0.00197423 -0.0112843 0)
(-0.000552943 -0.014335 0)
(0.000197372 -0.0143541 0)
(0.000468482 -0.0116187 0)
(0.000818873 -0.0132322 0)
(0.000953372 -0.0120805 0)
(0.00712275 -0.0139011 0)
(0.00263259 -0.0122702 0)
(-6.58748e-05 -0.0120801 0)
(0.000561218 -0.0178675 0)
(-0.000196829 -0.0129897 0)
(0.00058669 -0.012462 0)
(0.00163219 -0.0150003 0)
(0.000306079 -0.0150401 0)
(-0.000180375 -0.0164912 0)
(-0.000459782 -0.0163523 0)
(-0.00144777 -0.0147346 0)
(0.0031874 -0.0130759 0)
(-0.00192546 -0.0130348 0)
(0.000941407 -0.0136567 0)
(0.00231209 -0.0379125 0)
(-0.00345091 -0.00740039 0)
(-0.00251572 -0.018137 0)
(-0.00258914 -0.0106479 0)
(-0.0015627 -0.014903 0)
(-0.0012565 -0.01358 0)
(-0.00242353 -0.013564 0)
(-0.00213984 -0.0118508 0)
(-0.00197343 -0.0136267 0)
(-0.00392478 -0.0115777 0)
(-0.00109311 -0.00942266 0)
(0.00102338 -0.0117229 0)
(-0.00223845 -0.0145941 0)
(0.00194387 -0.0128302 0)
(-8.68714e-05 -0.0112919 0)
(-0.000484383 -0.0150462 0)
(0.000627629 -0.0177911 0)
(0.000807431 -0.0135334 0)
(6.31443e-05 -0.0106885 0)
(0.000369843 -0.0109939 0)
(-0.000206799 -0.0140486 0)
(0.00014238 -0.0121424 0)
(0.000216898 -0.0117879 0)
(-7.89202e-05 -0.0165288 0)
(-0.00103062 -0.0118395 0)
(-0.000418013 -0.0113472 0)
(-0.000287163 -0.0152603 0)
(0.000773121 -0.0158891 0)
(0.00145 -0.0162679 0)
(-0.00201126 -0.0131434 0)
(-0.00025389 -0.0140039 0)
(0.00112299 -0.0135993 0)
(0.00148066 -0.0127594 0)
(0.00229173 -0.0149448 0)
(-0.000110409 -0.0137908 0)
(-0.000643651 -0.0154517 0)
(-0.000155359 -0.0169351 0)
(0.00129222 -0.0165188 0)
(-0.00405056 -0.0132063 0)
(-0.00148266 -0.0139911 0)
(-0.00149497 -0.0141944 0)
(-0.000226492 -0.0112532 0)
(-0.00244713 -0.00872163 0)
(0.000400832 -0.00934316 0)
(-0.00207715 -0.0099586 0)
(0.00109718 -0.00833718 0)
(0.001444 -0.0101892 0)
(0.00120699 -0.00833695 0)
(0.000926441 -0.00754928 0)
(0.000468318 -0.011826 0)
(0.00158169 -0.0117037 0)
(-0.00125315 -0.00751842 0)
(-0.0012286 -0.00877728 0)
(0.000499808 -0.0114525 0)
(0.000264991 -0.0100129 0)
(0.000165224 -0.00959923 0)
(-0.000135283 -0.010612 0)
(0.00349188 -0.0114561 0)
(0.00176764 -0.0122722 0)
(0.00187699 -0.01542 0)
(0.00216327 -0.0117528 0)
(0.000887338 -0.0122642 0)
(0.0013011 -0.0153643 0)
(-0.00173042 -0.0138845 0)
(0.000394002 -0.0144931 0)
(0.00176191 -0.0127405 0)
(-0.00126036 -0.0124523 0)
(0.00109424 -0.0152721 0)
(0.000390498 -0.0158402 0)
(0.000644807 -0.0164718 0)
(0.000370142 -0.0174718 0)
(0.000289336 -0.0132569 0)
(7.33746e-05 -0.0136877 0)
(-0.00108463 -0.0182011 0)
(-0.000411306 -0.0173576 0)
(0.0018729 -0.025853 0)
(-0.00242519 -0.00570254 0)
(-0.00290147 -0.0170679 0)
(-0.00126634 -0.00971423 0)
(-0.000868177 -0.0139156 0)
(-0.00155926 -0.012895 0)
(-0.000941277 -0.0135814 0)
(-0.00283741 -0.013669 0)
(-0.00206052 -0.0163082 0)
(-0.000718596 -0.014057 0)
(0.000535518 -0.0111318 0)
(-0.000140171 -0.0164524 0)
(0.000612945 -0.0155406 0)
(0.000876933 -0.0129747 0)
(-0.00163829 -0.0159092 0)
(-0.0021636 -0.0157398 0)
(0.000379952 -0.0163108 0)
(0.00250898 -0.0143173 0)
(0.00163456 -0.0127475 0)
(0.000301681 -0.0128747 0)
(-0.00100309 -0.0129696 0)
(0.000141943 -0.0127067 0)
(-0.00331807 -0.0131616 0)
(-0.000252183 -0.0136238 0)
(0.00125597 -0.012417 0)
(-0.00124098 -0.012224 0)
(-0.000242548 -0.0137504 0)
(0.000256495 -0.0139946 0)
(0.000204863 -0.0143352 0)
(0.000109955 -0.0113678 0)
(-0.00313402 -0.0098122 0)
(0.00264512 -0.0125086 0)
(-0.000890272 -0.0147325 0)
(7.18109e-05 -0.0120273 0)
(-0.000272503 -0.0108584 0)
(-0.00072093 -0.013405 0)
(0.0012297 -0.0132368 0)
(0.000628874 -0.0136975 0)
(-0.0018034 -0.0127627 0)
(-0.00401283 -0.0131761 0)
(-0.000679803 -0.0110574 0)
(-0.000747713 -0.0120364 0)