/*--------------------------------*- C++ -*----------------------------------*\
  =========                 |
  \\      /  F ield         | OpenFOAM: The Open Source CFD Toolbox
   \\    /   O peration     | Website:  https://openfoam.org
    \\  /    A nd           | Version:  12
     \\/     M anipulation  |
\*---------------------------------------------------------------------------*/
FoamFile
{
    format      ascii;
    class       volVectorField;
    location    "0.45";
    object      U.water_0;
}
// * * * * * * * * * * * * * * * * * * * * * * * * * * * * * * * * * * * * * //

dimensions      [0 1 -1 0 0 0 0];

internalField   nonuniform List<vector> 
3750
(
(0.0032447 -0.0356293 0)
(-0.0050949 -0.0106932 0)
(-0.00909869 -0.00943767 0)
(-0.00304743 0.00417157 0)
(-0.00106016 0.000626056 0)
(-0.00123744 0.00676254 0)
(0.000998079 0.00562967 0)
(0.00199674 0.00713894 0)
(0.000537157 0.00589781 0)
(0.00101398 0.00571607 0)
(4.79878e-05 0.00764937 0)
(0.000949732 0.00891373 0)
(0.0015547 0.0151428 0)
(-0.0012831 0.0149376 0)
(-0.000861594 0.00772959 0)
(0.000504098 0.00711713 0)
(0.00116728 0.0134837 0)
(-0.00207022 0.0128355 0)
(-0.000716367 0.0087388 0)
(0.000670507 0.0158527 0)
(-0.00217195 0.0156244 0)
(0.000443234 0.00991614 0)
(0.00226808 0.014478 0)
(-0.000988033 0.0142143 0)
(-0.000972687 0.0080641 0)
(-0.00059091 0.00896899 0)
(-0.0009781 0.00975163 0)
(0.0001889 0.0112524 0)
(0.000197947 0.0129895 0)
(0.000157409 0.0120071 0)
(-0.000100809 0.0116937 0)
(-0.00114759 0.0115313 0)
(0.000775537 0.0113271 0)
(0.00119673 0.0129303 0)
(-0.000271736 0.0135263 0)
(-0.000247855 0.0144636 0)
(-0.000319342 0.0149941 0)
(-0.000258023 0.0152131 0)
(-0.000552118 0.0155835 0)
(-0.000873031 0.0149466 0)
(-0.00114261 0.0144009 0)
(-0.000217742 0.015261 0)
(0.000162611 0.0175533 0)
(-0.000124775 0.0215085 0)
(0.000671048 0.0227159 0)
(0.00105479 0.0230777 0)
(0.00135389 0.0218096 0)
(0.00100081 0.0174726 0)
(0.00184782 0.0130796 0)
(-0.000347654 0.010247 0)
(0.000140954 0.00921312 0)
(0.000230424 0.00946225 0)
(-8.57402e-05 0.0114207 0)
(9.7513e-05 0.0115852 0)
(-7.38175e-06 0.0107675 0)
(0.000517347 0.00999724 0)
(0.000278202 0.0111759 0)
(0.00132504 0.0112238 0)
(0.000786243 0.0135436 0)
(-0.000112744 0.0131581 0)
(0.000907539 0.0127257 0)
(0.00101932 0.012491 0)
(-0.000253777 0.0120568 0)
(-0.000657785 0.0113031 0)
(-3.27223e-05 0.00985016 0)
(-0.000313391 0.00814501 0)
(-0.000495288 0.0065825 0)
(-0.00179527 0.00705028 0)
(-0.000851268 0.00791389 0)
(-0.000530068 0.00865573 0)
(0.000110099 0.0102065 0)
(0.0010245 0.0102085 0)
(0.0019231 0.0151707 0)
(-0.00200959 0.0146446 0)
(-0.00051418 0.00865453 0)
(0.00722914 -0.0269489 0)
(-0.00798258 -0.00179505 0)
(-0.00796799 -0.00963401 0)
(-0.00497079 -0.0023875 0)
(-0.00124717 -0.0109005 0)
(-0.00341082 -0.00281787 0)
(0.000346843 -0.00252524 0)
(-0.00142743 -0.00374024 0)
(-0.0021145 -0.00502105 0)
(-0.00253764 -0.00180337 0)
(-0.00222655 0.00146004 0)
(-0.00347209 0.00444937 0)
(0.00295171 0.0069423 0)
(0.000200283 0.00728367 0)
(0.00109196 0.00316293 0)
(0.00150677 0.00118409 0)
(0.00263254 0.000913321 0)
(-0.00299003 0.000924523 0)
(-0.00126283 6.27347e-05 0)
(0.000731745 0.00194726 0)
(-0.00353018 0.00402529 0)
(0.00270581 0.00372824 0)
(0.00294671 0.00430492 0)
(-0.00071974 0.00433103 0)
(-0.000405913 0.00140587 0)
(-0.00109542 -0.00118379 0)
(-0.000994285 -0.00148226 0)
(-0.00203219 -0.0038175 0)
(0.000456004 -0.00202232 0)
(-0.000340383 -0.00193856 0)
(-0.000377208 -0.00141693 0)
(-0.00168831 0.000563802 0)
(-0.000251339 0.00251301 0)
(-0.000304858 0.00221879 0)
(-0.00254406 0.00124626 0)
(-0.000267909 0.00211067 0)
(-0.00139988 0.00118917 0)
(0.000432882 0.00171209 0)
(0.00256146 0.00147586 0)
(0.00168229 -8.01905e-06 0)
(-0.000549785 0.000941749 0)
(-0.00275654 0.00191683 0)
(-0.00471495 0.00555449 0)
(-0.0039558 0.00997151 0)
(-0.00240015 0.0135411 0)
(1.41848e-05 0.0168172 0)
(0.00352019 0.0157035 0)
(0.00405201 0.0116946 0)
(0.00305715 0.00793858 0)
(0.00252278 0.00560087 0)
(-5.7881e-05 0.00331295 0)
(0.000529514 0.00122222 0)
(0.00060268 0.00215322 0)
(0.00098296 0.0032648 0)
(0.000168303 0.00343846 0)
(-0.00036467 0.00347504 0)
(-0.00172745 0.00605962 0)
(-0.00206673 0.00907236 0)
(-0.00338093 0.0107975 0)
(-0.00344915 0.0120942 0)
(0.00227971 0.0115401 0)
(0.000563237 0.00809156 0)
(0.000241578 0.00605378 0)
(-0.000687989 0.00729688 0)
(0.00266358 0.00630743 0)
(0.0028464 0.00428976 0)
(0.00231593 0.000558269 0)
(0.00265169 -0.000272067 0)
(0.000723434 -0.00188585 0)
(-0.000265373 -0.00397114 0)
(-0.000974514 -0.000751659 0)
(-0.000630323 0.0010497 0)
(0.000197352 0.00310038 0)
(-0.000859521 0.00504093 0)
(0.000417556 0.000856244 0)
(0.00162634 -0.0222988 0)
(-0.00938216 -0.00448976 0)
(-0.0049182 -0.0111475 0)
(-0.0077414 -0.00694872 0)
(-0.003098 -0.0109358 0)
(0.00141875 -0.00519617 0)
(-0.00157491 -0.00510595 0)
(-0.00222217 -0.00733182 0)
(-0.0045839 -0.00730621 0)
(-0.00300195 -0.00727798 0)
(-0.00283941 -0.00898822 0)
(-0.00271576 -0.0064507 0)
(-0.00105114 -0.00684858 0)
(0.00172953 -0.0129868 0)
(0.00281351 -0.0136905 0)
(0.00268924 -0.0116304 0)
(0.00189247 -0.0102369 0)
(-0.00136874 -0.0113084 0)
(-0.00149352 -0.0130294 0)
(-0.0018419 -0.0150646 0)
(-0.00198135 -0.0109785 0)
(-0.00118657 -0.0119999 0)
(5.74189e-05 -0.0151908 0)
(0.000805137 -0.0129265 0)
(0.0022764 -0.0140327 0)
(0.00202076 -0.0151439 0)
(0.000959647 -0.0167795 0)
(-0.000623768 -0.0177454 0)
(-0.000941226 -0.0180639 0)
(2.34176e-05 -0.0171511 0)
(-0.000508441 -0.0151282 0)
(-0.00111854 -0.011073 0)
(-0.000985001 -0.0075355 0)
(-0.00089976 -0.0107891 0)
(-0.00152993 -0.011782 0)
(-0.00177241 -0.0106301 0)
(-0.00149489 -0.0115164 0)
(0.000355233 -0.00693521 0)
(0.000979335 -0.00497673 0)
(-0.00028074 -0.00546982 0)
(-0.00320679 -0.00270407 0)
(-0.00597547 -0.00174502 0)
(-0.00869553 -0.001413 0)
(-0.00556784 0.000102774 0)
(-0.00465331 4.97478e-05 0)
(-0.00096018 0.00473251 0)
(0.00330059 0.00802767 0)
(0.00549964 0.00204659 0)
(0.00422371 0.00414384 0)
(0.00772963 0.00209614 0)
(0.00451481 -0.00258885 0)
(0.000809998 -0.00538227 0)
(6.83549e-05 -0.0055869 0)
(-0.00110324 -0.0050814 0)
(-0.00193457 -0.00585707 0)
(-0.00177851 -0.00561991 0)
(-0.00218233 -0.00548217 0)
(-0.00260482 -0.00623764 0)
(-0.00124918 -0.00649871 0)
(0.00137064 -0.00193755 0)
(0.004064 -0.00484112 0)
(0.00368118 -0.0101716 0)
(0.00166758 -0.0082174 0)
(-0.000647887 -0.00349573 0)
(0.000504202 -0.00289725 0)
(0.00274314 -0.00754427 0)
(0.00392192 -0.00887226 0)
(0.00542418 -0.00926117 0)
(0.000954106 -0.00898658 0)
(-0.00102935 -0.00858819 0)
(-0.0025125 -0.00705355 0)
(-0.00530712 -0.00679374 0)
(-0.00113213 -0.0061521 0)
(0.000414347 -0.0057098 0)
(0.00408392 -0.00947726 0)
(0.000110901 -0.0289051 0)
(-0.00862178 -0.00342132 0)
(-0.0057962 -0.0155615 0)
(-0.00713447 -0.0109187 0)
(-0.00509865 -0.0110672 0)
(-0.00187273 -0.00790091 0)
(-0.00423799 -0.00823288 0)
(-0.00167358 -0.00617343 0)
(-0.00112037 -0.00574507 0)
(3.23825e-05 -0.00421386 0)
(0.00104769 -0.0076496 0)
(0.00380227 -0.00981537 0)
(0.000463156 -0.00866605 0)
(0.00143767 -0.0105132 0)
(0.000280537 -0.0161816 0)
(-0.000721684 -0.01637 0)
(-0.00179877 -0.0159909 0)
(2.51899e-05 -0.0174442 0)
(0.00187572 -0.0197677 0)
(0.00244453 -0.0213728 0)
(0.00330197 -0.0201016 0)
(-0.00152122 -0.0205622 0)
(0.0001827 -0.0218552 0)
(-0.000753185 -0.0219563 0)
(0.000273566 -0.0196189 0)
(0.000956714 -0.0182011 0)
(0.00060261 -0.0177614 0)
(-0.000186868 -0.0170156 0)
(-0.000153083 -0.0163981 0)
(-0.000375914 -0.0163202 0)
(-0.000675493 -0.0184168 0)
(-4.46447e-05 -0.015821 0)
(-0.00204087 -0.0139771 0)
(-0.00444426 -0.0159506 0)
(-0.00374452 -0.0140765 0)
(-0.0050065 -0.0112402 0)
(-0.00358584 -0.00914056 0)
(-0.00112981 -0.00693347 0)
(-0.00186133 -0.00763066 0)
(-0.00154898 -0.0087997 0)
(-0.00278907 -0.00684297 0)
(-0.00524798 -0.00730035 0)
(-0.0053218 -0.00639689 0)
(-0.00627261 -0.00504471 0)
(-0.00637373 -0.00960862 0)
(-0.000172895 -0.00989951 0)
(0.00193492 -0.00896664 0)
(0.00299544 -0.0106506 0)
(0.00782939 -0.00620043 0)
(0.00806445 -0.00741661 0)
(0.00439434 -0.0117989 0)
(0.00315025 -0.0100734 0)
(0.00194348 -0.0105599 0)
(0.000887771 -0.0120144 0)
(-0.000516109 -0.0137004 0)
(0.000628485 -0.0155844 0)
(-0.00170387 -0.0169552 0)
(-0.0045394 -0.0157771 0)
(-0.00121751 -0.01456 0)
(0.000659071 -0.0117332 0)
(-0.000303666 -0.0111396 0)
(-0.000154074 -0.0127821 0)
(0.00106547 -0.0110628 0)
(0.00172734 -0.00528229 0)
(-0.00200265 -0.00492387 0)
(0.000853909 -0.00900003 0)
(0.00340668 -0.0119596 0)
(0.00260061 -0.0128989 0)
(0.00131913 -0.0119211 0)
(0.000726975 -0.0105429 0)
(0.000533222 -0.013251 0)
(-0.000827257 -0.0116722 0)
(0.000933069 -0.00935108 0)
(-0.00101652 -0.00946591 0)
(0.00173474 -0.0120818 0)
(0.00044722 -0.0303311 0)
(-0.00733267 -0.00329467 0)
(-0.00856891 -0.0123332 0)
(-0.0064587 -0.0109618 0)
(-0.00459331 -0.0132125 0)
(-0.00576222 -0.0110716 0)
(-0.00431063 -0.0107351 0)
(-0.00493204 -0.0087941 0)
(-0.00368576 -0.00835828 0)
(-0.00284679 -0.00480282 0)
(-0.000124409 -0.00255742 0)
(0.00200381 0.000140617 0)
(0.00544445 0.0022581 0)
(0.00486455 -0.000244572 0)
(0.00253768 -0.00374508 0)
(0.00152978 -0.00667317 0)
(0.00231624 -0.0104041 0)
(0.00122568 -0.0132767 0)
(0.000893989 -0.0151463 0)
(0.00143222 -0.0149865 0)
(0.000235006 -0.0134433 0)
(-0.00260917 -0.011417 0)
(0.000526387 -0.0110286 0)
(-0.000753857 -0.0114976 0)
(1.20953e-05 -0.0123887 0)
(-0.000234071 -0.0121943 0)
(-0.000354149 -0.0123143 0)
(-0.00143973 -0.0107891 0)
(0.000685676 -0.0119088 0)
(-0.000360138 -0.0141913 0)
(1.58616e-05 -0.014149 0)
(0.00173784 -0.0141957 0)
(-0.00314976 -0.014645 0)
(-0.00505021 -0.0145612 0)
(-0.00361264 -0.0129406 0)
(-0.00483818 -0.00896424 0)
(-0.00309468 -0.00686663 0)
(-0.00228839 -0.00631048 0)
(-0.00218439 -0.00876656 0)
(-0.00172721 -0.0118989 0)
(-0.00246016 -0.0132699 0)
(-0.00490144 -0.0121915 0)
(-0.00253163 -0.0111398 0)
(-0.00497062 -0.0130058 0)
(-0.0044295 -0.0155984 0)
(0.000755864 -0.0180618 0)
(0.00435975 -0.0194877 0)
(0.00415517 -0.0143384 0)
(0.00898209 -0.00767822 0)
(-8.92877e-05 -0.0105686 0)
(0.000873732 -0.0120271 0)
(0.00322991 -0.0113034 0)
(0.0010561 -0.0124911 0)
(0.000858806 -0.0124098 0)
(0.001458 -0.0113762 0)
(0.0013645 -0.0118924 0)
(0.00015222 -0.0136755 0)
(-0.00133331 -0.0105532 0)
(-0.00201535 -0.00846171 0)
(-0.000215077 -0.00910134 0)
(0.00142654 -0.0145221 0)
(0.00187768 -0.0182321 0)
(0.00164009 -0.0154199 0)
(0.00363571 -0.0162669 0)
(0.00290482 -0.0135085 0)
(0.00089462 -0.0114116 0)
(0.000652078 -0.0147469 0)
(0.000805804 -0.0168275 0)
(0.000713718 -0.0153719 0)
(-5.17998e-05 -0.0145319 0)
(-9.0615e-05 -0.0148065 0)
(0.00230548 -0.0141259 0)
(-0.000392442 -0.0131805 0)
(-0.00226249 -0.011642 0)
(0.000463948 -0.0144849 0)
(-0.000192358 -0.028867 0)
(-0.00442752 -0.0024891 0)
(-0.010139 -0.0146051 0)
(-0.00623653 -0.00799751 0)
(-0.00458373 -0.0131926 0)
(-0.00448288 -0.0117353 0)
(-0.00414852 -0.0103303 0)
(-0.0060011 -0.011164 0)
(-0.00465058 -0.0132742 0)
(-0.00515665 -0.0121392 0)
(-0.00339809 -0.0112924 0)
(0.000520364 -0.00841968 0)
(0.000315061 -0.00530481 0)
(0.00194821 -0.00912175 0)
(0.00273881 -0.0137502 0)
(0.0061283 -0.0113661 0)
(0.00496739 -0.0120124 0)
(0.00309345 -0.0140778 0)
(0.00121915 -0.0132266 0)
(0.000923683 -0.0139131 0)
(0.00103368 -0.0141412 0)
(0.000202529 -0.00968588 0)
(-0.000352781 -0.00935407 0)
(-0.00114525 -0.0131856 0)
(0.000249155 -0.0122695 0)
(0.000464685 -0.0115517 0)
(0.000592453 -0.0117728 0)
(0.000344673 -0.00815685 0)
(-0.00105365 -0.00766447 0)
(0.000937034 -0.0107418 0)
(0.000884449 -0.00955764 0)
(-0.00187065 -0.0118102 0)
(-0.00195776 -0.011974 0)
(-0.00299907 -0.0071788 0)
(-0.00313921 -0.00761804 0)
(-0.00293655 -0.00798453 0)
(-0.0027971 -0.00779713 0)
(-0.00217813 -0.0088922 0)
(-0.00267119 -0.0105022 0)
(-0.00345038 -0.0127853 0)
(-0.00377275 -0.013121 0)
(-0.00522548 -0.0119611 0)
(-0.00334472 -0.0136604 0)
(-0.00389934 -0.0172204 0)
(-0.00296121 -0.0193809 0)
(0.00106696 -0.0217676 0)
(0.00688433 -0.0219688 0)
(0.00984928 -0.0166302 0)
(0.00565024 -0.0164942 0)
(0.000601447 -0.0161775 0)
(0.00078419 -0.0113743 0)
(0.00071502 -0.0166805 0)
(0.00057625 -0.0203204 0)
(0.000339666 -0.0197526 0)
(0.00036414 -0.0199932 0)
(0.000301538 -0.0196404 0)
(0.000682354 -0.0184423 0)
(0.00221298 -0.0167925 0)
(0.000605068 -0.0146194 0)
(-0.000898092 -0.0120837 0)
(0.00161816 -0.015439 0)
(0.00277625 -0.0196927 0)
(0.00321745 -0.0164677 0)
(0.00287952 -0.0116313 0)
(0.00336322 -0.0136595 0)
(-0.000110972 -0.0153711 0)
(-0.00268847 -0.0150827 0)
(-0.0005028 -0.0161414 0)
(0.000725569 -0.0166946 0)
(0.00087678 -0.0161755 0)
(0.00111965 -0.0166988 0)
(0.0013198 -0.018404 0)
(0.00212233 -0.0189635 0)
(0.000575885 -0.0141202 0)
(0.00169311 -0.0146304 0)
(0.00348193 -0.0422417 0)
(-0.00986792 -0.00593352 0)
(-0.00783788 -0.0179802 0)
(-0.00867401 -0.00940483 0)
(-0.00704921 -0.0151357 0)
(-0.00595483 -0.0148107 0)
(-0.00327248 -0.0160965 0)
(-0.00288487 -0.0170274 0)
(-0.00118175 -0.0194407 0)
(-0.000966435 -0.0192294 0)
(-0.000995831 -0.0136284 0)
(0.000755535 -0.0125704 0)
(0.00184185 -0.0132703 0)
(0.0013714 -0.0146397 0)
(0.00401914 -0.011638 0)
(0.00348707 -0.0100881 0)
(0.00115295 -0.0124751 0)
(0.00163772 -0.0130594 0)
(0.00124656 -0.0128497 0)
(0.00114249 -0.0106521 0)
(0.00147941 -0.0100995 0)
(0.00106547 -0.00978867 0)
(-0.00327672 -0.010603 0)
(-0.00230486 -0.010095 0)
(-0.0011381 -0.00972792 0)
(-0.000752071 -0.0111371 0)
(-0.000267607 -0.0105722 0)
(0.00134056 -0.00925679 0)
(-0.00278101 -0.00773642 0)
(0.00125644 -0.00792363 0)
(0.00146047 -0.00984379 0)
(0.00139036 -0.00805308 0)
(0.000937262 -0.00565149 0)
(-0.00312968 -0.00643829 0)
(-0.00621932 -0.00561692 0)
(-0.00433588 -0.00552263 0)
(-0.00230462 -0.00747865 0)
(-0.000896384 -0.0090163 0)
(-0.00211243 -0.00970305 0)
(-0.00311092 -0.0105962 0)
(-0.00385889 -0.0121355 0)
(-0.00295307 -0.00904172 0)
(-0.00154925 -0.00979258 0)
(-0.00149567 -0.0148525 0)
(3.91338e-05 -0.0167092 0)
(0.00429773 -0.017103 0)
(0.00619255 -0.0170414 0)
(0.00750001 -0.0156908 0)
(0.00343159 -0.0152628 0)
(0.00363877 -0.0150421 0)
(0.000124339 -0.0140754 0)
(-0.00193218 -0.016077 0)
(0.000125501 -0.0170012 0)
(0.000449319 -0.0159117 0)
(0.000960783 -0.0137527 0)
(0.000952398 -0.0138296 0)
(0.000105915 -0.0144112 0)
(6.80146e-06 -0.0136039 0)
(-0.000692794 -0.0157717 0)
(-0.000464955 -0.0119963 0)
(-0.000159314 -0.0133323 0)
(0.0013508 -0.0157216 0)
(0.00433269 -0.0131264 0)
(0.00187301 -0.0138308 0)
(-0.000486821 -0.0140096 0)
(-0.000597728 -0.0147855 0)
(-0.00105185 -0.013966 0)
(-0.0012819 -0.0142155 0)
(0.000289691 -0.0147374 0)
(0.00142864 -0.0147157 0)
(0.00211414 -0.0155963 0)
(0.00181274 -0.014654 0)
(-0.00037573 -0.013842 0)
(0.00392017 -0.00995822 0)
(-0.000503077 -0.0112075 0)
(0.00141405 -0.0270166 0)
(-0.00950501 -0.00725148 0)
(-0.00645585 -0.017525 0)
(-0.00751663 -0.014034 0)
(-0.00280686 -0.0194254 0)
(-0.00153743 -0.0220728 0)
(-0.000635295 -0.0241813 0)
(-0.000767905 -0.025828 0)
(-0.00312448 -0.0256584 0)
(-0.00278767 -0.0248148 0)
(-0.00322211 -0.0220604 0)
(-0.0015594 -0.0192157 0)
(0.000650158 -0.015214 0)
(0.00196673 -0.0129446 0)
(0.00450926 -0.0120694 0)
(0.00219021 -0.0111923 0)
(0.0028705 -0.0120174 0)
(0.00257879 -0.0119502 0)
(0.00073686 -0.0113773 0)
(0.000820999 -0.0104718 0)
(0.000588721 -0.0104134 0)
(0.000160001 -0.0106636 0)
(0.000710601 -0.0110833 0)
(0.000321369 -0.0121885 0)
(-0.00136231 -0.0127043 0)
(-0.000392476 -0.012551 0)
(0.000517961 -0.0120288 0)
(0.000275916 -0.0124964 0)
(-0.000929806 -0.00935956 0)
(-0.000859024 -0.00834637 0)
(-0.00141379 -0.00920768 0)
(-0.00218445 -0.00795682 0)
(-0.00431498 -0.00702867 0)
(-0.00337454 -0.00650977 0)
(-0.00320704 -0.00705723 0)
(-0.00298952 -0.00942446 0)
(-0.00294052 -0.0109365 0)
(0.000738785 -0.0129401 0)
(-0.000219824 -0.0137782 0)
(-0.00158215 -0.0138431 0)
(-0.00228078 -0.0132521 0)
(-0.00235427 -0.0106736 0)
(-0.00166831 -0.0121404 0)
(-0.00218317 -0.0161875 0)
(-0.00052135 -0.0160071 0)
(0.00409895 -0.015675 0)
(0.0062181 -0.0143312 0)
(0.00421305 -0.0115372 0)
(0.00613365 -0.0106038 0)
(0.00355236 -0.0127865 0)
(0.000259281 -0.0136759 0)
(-0.00150567 -0.0150942 0)
(-0.00133119 -0.0158946 0)
(-0.00204698 -0.0152014 0)
(0.00103593 -0.0131691 0)
(0.000894073 -0.0128155 0)
(0.00111892 -0.0127248 0)
(0.00155489 -0.0132869 0)
(0.00219796 -0.0149683 0)
(0.00367914 -0.0153334 0)
(-0.000363987 -0.0170451 0)
(0.000711463 -0.0165421 0)
(0.00398796 -0.0148959 0)
(0.00162727 -0.0148366 0)
(-6.48778e-05 -0.0145621 0)
(-0.00143748 -0.0150788 0)
(-0.00159568 -0.0148073 0)
(-0.00212253 -0.0144064 0)
(0.000614058 -0.0133578 0)
(0.00167913 -0.0129465 0)
(0.00334024 -0.0129323 0)
(0.00297625 -0.015416 0)
(0.00108643 -0.0122912 0)
(0.00303496 -0.00964142 0)
(-0.00162907 -0.0146863 0)
(0.00137758 -0.0339256 0)
(-0.0047417 -0.00749659 0)
(-0.00401987 -0.0218892 0)
(-0.00319157 -0.0141867 0)
(-0.00206137 -0.0182695 0)
(-0.000505106 -0.0227966 0)
(-0.00152451 -0.0231635 0)
(-0.000782071 -0.0233007 0)
(-0.0019497 -0.0247422 0)
(-0.00322445 -0.025646 0)
(-0.00453894 -0.0241905 0)
(-0.00189185 -0.0240342 0)
(-0.00277237 -0.0228362 0)
(-0.000815914 -0.0191898 0)
(-0.000186483 -0.01802 0)
(-5.80623e-05 -0.0163222 0)
(0.00280209 -0.0144079 0)
(0.000809394 -0.0154308 0)
(0.000753689 -0.0162075 0)
(-0.000432262 -0.0144897 0)
(-0.000216661 -0.0140676 0)
(-0.00048392 -0.0110296 0)
(0.0013514 -0.00825141 0)
(-0.00110852 -0.00763424 0)
(-0.003396 -0.00570566 0)
(-0.00220855 -0.00444288 0)
(-0.00109895 -0.00372626 0)
(-0.0010445 -0.00309077 0)
(0.00144604 -0.000731335 0)
(-0.000859824 -0.000269424 0)
(-0.00155181 -0.00427874 0)
(-0.00297104 -0.00778409 0)
(-0.00171748 -0.0084964 0)
(-8.80083e-05 -0.0119831 0)
(0.00151538 -0.0151027 0)
(-0.000709311 -0.0173337 0)
(-0.00380131 -0.0126478 0)
(-3.53141e-05 -0.0114684 0)
(-0.00141983 -0.016382 0)
(-0.00311677 -0.0155336 0)
(-0.00128368 -0.0134337 0)
(-0.00113904 -0.00951105 0)
(4.93804e-05 -0.0133628 0)
(-0.000472776 -0.0221238 0)
(0.000703524 -0.0223055 0)
(0.00158117 -0.0204618 0)
(0.00550949 -0.0203897 0)
(0.00555798 -0.0142069 0)
(0.00417144 -0.0120188 0)
(0.00253414 -0.0151115 0)
(8.84045e-05 -0.0132787 0)
(0.00165192 -0.0121466 0)
(0.000798248 -0.0145475 0)
(4.6075e-05 -0.0129732 0)
(0.000878396 -0.0120215 0)
(0.000488601 -0.0155829 0)
(0.000571583 -0.0145797 0)
(0.000990285 -0.0126164 0)
(0.0020653 -0.0129087 0)
(0.00190145 -0.0136422 0)
(0.00128524 -0.0165941 0)
(0.000197374 -0.0120109 0)
(0.00132653 -0.0106611 0)
(0.000764297 -0.0138039 0)
(-0.00037127 -0.0126532 0)
(6.24868e-05 -0.0146433 0)
(-0.0012533 -0.0156291 0)
(0.000416644 -0.0128208 0)
(0.00103188 -0.0111828 0)
(0.00210017 -0.0115481 0)
(0.00184126 -0.0136186 0)
(0.000501399 -0.0153928 0)
(0.00166224 -0.01312 0)
(-0.00153855 -0.0110811 0)
(-0.00172154 -0.0112593 0)
(-0.00104337 -0.0232814 0)
(-0.00168904 -0.00258549 0)
(-0.00178191 -0.0166071 0)
(-0.000841038 -0.0108188 0)
(-0.00407023 -0.0143144 0)
(0.000358115 -0.0160474 0)
(-0.00047131 -0.0175661 0)
(-0.00168874 -0.0171097 0)
(-0.00203528 -0.0183623 0)
(-0.00424506 -0.0182702 0)
(-0.00423518 -0.0143587 0)
(-0.00425028 -0.0151143 0)
(-0.00333311 -0.0190858 0)
(-0.00113737 -0.0177965 0)
(0.0011209 -0.0166209 0)
(0.000522463 -0.0114467 0)
(0.00110971 -0.0113843 0)
(0.000687269 -0.0145452 0)
(0.000777006 -0.013451 0)
(-0.00192342 -0.0130356 0)
(-0.00135556 -0.0120137 0)
(-0.00275105 -0.00929106 0)
(-0.00472388 -0.00863009 0)
(-0.00201472 -0.0126998 0)
(-0.00219165 -0.0125753 0)
(-0.00276618 -0.0126691 0)
(-0.00244049 -0.0145982 0)
(-0.00146902 -0.0143532 0)
(-0.000921058 -0.0128942 0)
(0.00117861 -0.0127373 0)
(0.000989459 -0.0138084 0)
(0.00235386 -0.0142723 0)
(0.00148266 -0.0150703 0)
(-0.000544835 -0.016002 0)
(-0.000709878 -0.0156583 0)
(-0.000328367 -0.0154079 0)
(0.000558817 -0.00894632 0)
(-0.00309742 -0.00877326 0)
(-0.00241367 -0.0159247 0)
(-0.000590945 -0.0134813 0)
(-0.00023686 -0.0123588 0)
(0.000934451 -0.0123275 0)
(-0.000955275 -0.0171721 0)
(0.000990223 -0.0234731 0)
(0.00147375 -0.0227739 0)
(0.00104454 -0.0206255 0)
(0.00310743 -0.0199704 0)
(0.00513138 -0.0192295 0)
(0.0014064 -0.0159736 0)
(0.000526645 -0.0144772 0)
(-0.000777173 -0.00930496 0)
(-0.00257735 -0.00913102 0)
(0.000837179 -0.0122027 0)
(0.00263473 -0.0116691 0)
(-0.000523625 -0.0119079 0)
(-0.000604779 -0.0129079 0)
(0.000567197 -0.0106369 0)
(0.00108398 -0.00967383 0)
(0.00187022 -0.0109171 0)
(0.00227465 -0.0113513 0)
(0.00253467 -0.0121487 0)
(0.00358789 -0.00911315 0)
(-0.000362946 -0.00789686 0)
(0.000153351 -0.0112732 0)
(0.00118908 -0.011201 0)
(0.000690544 -0.0124447 0)
(0.000972932 -0.0137126 0)
(0.00230735 -0.0124672 0)
(0.00141975 -0.0123267 0)
(0.000607642 -0.011663 0)
(-0.000793695 -0.0123269 0)
(-0.000606524 -0.0133523 0)
(-0.000494091 -0.0119486 0)
(0.000176478 -0.0115575 0)
(-0.000453377 -0.0132655 0)
(0.00193476 -0.0261141 0)
(-0.00211617 -0.00304679 0)
(-0.00235347 -0.0173548 0)
(0.00151626 -0.00929261 0)
(0.000269158 -0.00841625 0)
(0.000184182 -0.00832041 0)
(-0.000553593 -0.0128466 0)
(-0.00225817 -0.0114537 0)
(-0.00357891 -0.0114889 0)
(-0.00169521 -0.0113328 0)
(-0.00171797 -0.0109204 0)
(-0.00488033 -0.0141344 0)
(-0.00456511 -0.0159281 0)
(-0.000787033 -0.0148044 0)
(0.000680259 -0.0140926 0)
(0.00243138 -0.0114617 0)
(-0.00124702 -0.0103683 0)
(-0.000363922 -0.0109772 0)
(-7.56585e-05 -0.0114247 0)
(5.83475e-05 -0.00701098 0)
(-0.00128857 -0.00545118 0)
(0.00101387 -0.00949338 0)
(-0.00183802 -0.008025 0)
(-0.000668368 -0.0115727 0)
(-0.00217388 -0.0158391 0)
(-0.000934087 -0.0158867 0)
(-0.00256965 -0.0167597 0)
(0.000509298 -0.0181548 0)
(6.83075e-06 -0.0150537 0)
(-0.000255899 -0.0142827 0)
(-0.00108407 -0.0167097 0)
(-0.001857 -0.0157306 0)
(0.000988968 -0.0167855 0)
(-2.37843e-05 -0.0173966 0)
(-0.00116013 -0.016989 0)
(-0.00204056 -0.0168929 0)
(-0.000646251 -0.015049 0)
(-0.00353984 -0.0144258 0)
(-0.00127067 -0.0161137 0)
(0.00568426 -0.015842 0)
(0.003595 -0.0157035 0)
(0.00103424 -0.0153072 0)
(-0.00360588 -0.0156319 0)
(0.00110873 -0.0176864 0)
(4.31588e-05 -0.0189935 0)
(0.00163865 -0.0167413 0)
(0.00108345 -0.0157682 0)
(0.00249352 -0.0164655 0)
(0.00189941 -0.0151628 0)
(0.00183136 -0.0150506 0)
(0.000585187 -0.0142984 0)
(-0.00326117 -0.0101227 0)
(-0.00203499 -0.00972917 0)
(0.00184231 -0.0138165 0)
(2.80641e-05 -0.0136743 0)
(-0.000684709 -0.0134917 0)
(-0.000197901 -0.0144456 0)
(0.000147673 -0.0147386 0)
(0.00109566 -0.014173 0)
(0.00181491 -0.0129694 0)
(0.00206052 -0.0128293 0)
(0.0025696 -0.0110119 0)
(0.000516975 -0.010168 0)
(-0.00132094 -0.00991419 0)
(0.00223994 -0.0116642 0)
(0.00132943 -0.0142084 0)
(0.00239033 -0.013083 0)
(0.00229098 -0.0124273 0)
(0.00123499 -0.0123086 0)
(0.0006166 -0.0120423 0)
(-0.000843771 -0.0119345 0)
(-0.00165819 -0.0130708 0)
(-0.000699959 -0.012218 0)
(-0.00163282 -0.01139 0)
(-0.0029433 -0.0106622 0)
(0.00530147 -0.0301859 0)
(-0.004574 -0.00510382 0)
(-0.00366007 -0.0123559 0)
(-0.00299779 -0.00505215 0)
(0.0010917 -0.0114578 0)
(-0.00209677 -0.00905251 0)
(-0.00112279 -0.0106137 0)
(-0.00181332 -0.0110269 0)
(-0.00381971 -0.00930575 0)
(0.00114467 -0.0102276 0)
(-0.00112099 -0.013565 0)
(-0.00233372 -0.0155532 0)
(-0.00259196 -0.0130975 0)
(-0.00315597 -0.0106607 0)
(7.29197e-05 -0.0119467 0)
(0.00089374 -0.0113746 0)
(2.90889e-05 -0.0117402 0)
(-0.00279249 -0.0114638 0)
(0.00059941 -0.0120188 0)
(0.00243671 -0.0139156 0)
(0.000324459 -0.0114689 0)
(0.000561447 -0.0119775 0)
(-0.00132469 -0.01413 0)
(-0.00124426 -0.0160373 0)
(-0.00177769 -0.0140944 0)
(-0.000972826 -0.0143288 0)
(-0.00119663 -0.0147273 0)
(-7.96975e-05 -0.0137793 0)
(0.00170582 -0.0164744 0)
(-0.00132172 -0.0177435 0)
(-0.00105762 -0.0195893 0)
(0.000777011 -0.0152848 0)
(0.00065053 -0.0151528 0)
(-0.000710617 -0.0197959 0)
(-0.00139412 -0.0209824 0)
(-0.00107787 -0.0225291 0)
(-0.00207041 -0.0217495 0)
(-0.000196677 -0.0224425 0)
(-0.000360832 -0.0194859 0)
(0.000891389 -0.01955 0)
(0.000309881 -0.0231181 0)
(0.00135512 -0.0207199 0)
(2.18517e-06 -0.0145974 0)
(0.000415441 -0.0164447 0)
(0.00090209 -0.0206842 0)
(0.000439784 -0.0190797 0)
(-0.000582865 -0.0186444 0)
(0.000370721 -0.0169598 0)
(0.00116988 -0.015092 0)
(0.00116048 -0.0139322 0)
(0.00101851 -0.0128934 0)
(-0.00125859 -0.0113417 0)
(-0.00163199 -0.00799557 0)
(-0.00074202 -0.00987194 0)
(-0.000883316 -0.0136598 0)
(-0.000900967 -0.0135254 0)
(0.000728454 -0.0134696 0)
(0.000408401 -0.013403 0)
(0.000522626 -0.0142636 0)
(0.0010561 -0.0139907 0)
(0.00200266 -0.013471 0)
(0.00162656 -0.0120074 0)
(0.00374994 -0.0138749 0)
(0.00173614 -0.0120069 0)
(-0.000147542 -0.0119291 0)
(0.000875214 -0.0146935 0)
(-0.000957876 -0.01297 0)
(0.00170845 -0.0127518 0)
(0.00206702 -0.0140097 0)
(0.00105168 -0.013748 0)
(0.000572332 -0.0141891 0)
(0.000124035 -0.0132203 0)
(-1.39344e-05 -0.0134011 0)
(-0.000217147 -0.015769 0)
(0.00167794 -0.0125259 0)
(0.000978083 -0.0268034 0)
(-0.00107405 -0.00246016 0)
(-0.00184897 -0.0165183 0)
(-0.00287122 -0.00523205 0)
(-0.00146598 -0.00926607 0)
(-0.000558451 -0.0106097 0)
(-0.00169354 -0.0117496 0)
(-0.000433426 -0.0129498 0)
(-0.000473761 -0.00799678 0)
(-0.00243647 -0.00785343 0)
(-0.00229273 -0.0113065 0)
(-0.00155757 -0.0115726 0)
(-0.000296015 -0.0119613 0)
(-0.00236899 -0.00808118 0)
(-0.000907642 -0.00754951 0)
(-0.001302 -0.00925048 0)
(0.00233043 -0.0123308 0)
(0.00198944 -0.0115276 0)
(0.00192288 -0.011062 0)
(0.00219788 -0.0154749 0)
(0.00253386 -0.0142165 0)
(-0.000227603 -0.014749 0)
(-0.00091531 -0.0123754 0)
(-0.00126038 -0.0112549 0)
(0.00071224 -0.014419 0)
(-0.00200052 -0.0150621 0)
(0.000417967 -0.0158096 0)
(-0.00104574 -0.0160486 0)
(-0.000493564 -0.0168663 0)
(-0.00130887 -0.0176378 0)
(-0.00151279 -0.0154416 0)
(0.0030031 -0.0136417 0)
(-0.00115929 -0.0164244 0)
(-0.00102378 -0.0188215 0)
(-0.000601684 -0.0190525 0)
(-5.34028e-05 -0.0209218 0)
(0.000315431 -0.017672 0)
(0.0003887 -0.0177015 0)
(0.000893636 -0.020063 0)
(-0.000966131 -0.0184214 0)
(0.000176875 -0.0188538 0)
(3.50705e-05 -0.0182234 0)
(0.00138774 -0.0176563 0)
(-0.00153117 -0.0164269 0)
(0.000467024 -0.0161689 0)
(-0.000380658 -0.0152218 0)
(-0.00121311 -0.0147259 0)
(-0.00110651 -0.0139131 0)
(-0.00193955 -0.0121417 0)
(0.00120388 -0.0121178 0)
(0.00058203 -0.014221 0)
(-0.000336533 -0.00947777 0)
(-0.000504699 -0.00643501 0)
(-0.00265302 -0.0111811 0)
(-0.00131773 -0.0130427 0)
(0.000175734 -0.0118623 0)
(0.00084985 -0.0128424 0)
(0.000543415 -0.015696 0)
(0.000209274 -0.0157688 0)
(-0.000460767 -0.014925 0)
(0.00375399 -0.0161543 0)
(0.0045054 -0.0128196 0)
(0.00323385 -0.012606 0)
(0.00339961 -0.0147654 0)
(-0.00178246 -0.0128446 0)
(0.00156922 -0.0149498 0)
(0.000884976 -0.0126682 0)
(0.00216213 -0.010803 0)
(0.00149228 -0.0151622 0)
(0.000528745 -0.01659 0)
(-6.54012e-05 -0.0166706 0)
(-0.000829984 -0.0164872 0)
(-0.00200284 -0.0143879 0)
(0.00102978 -0.0129866 0)
(0.00375337 -0.0124475 0)
(0.00252277 -0.0380768 0)
(-0.00333296 -0.0068773 0)
(-0.0034023 -0.0187674 0)
(-2.55185e-05 -0.00947634 0)
(-0.00266904 -0.0130339 0)
(-0.00126656 -0.0133619 0)
(-0.0022877 -0.0135602 0)
(-0.00155468 -0.0123907 0)
(-0.000587284 -0.0130169 0)
(-0.00378261 -0.0113681 0)
(-0.000946259 -0.0114935 0)
(-0.0011563 -0.0132613 0)
(-0.000109219 -0.0148706 0)
(0.000654005 -0.0141734 0)
(-0.00198441 -0.0156118 0)
(-0.000537789 -0.0125239 0)
(0.000771099 -0.012067 0)
(0.00229789 -0.0144187 0)
(-0.000526805 -0.0133078 0)
(0.000208438 -0.0136704 0)
(0.00134564 -0.0130085 0)
(0.000618294 -0.0125061 0)
(0.00131999 -0.0117268 0)
(-0.00203618 -0.0126469 0)
(-0.000524707 -0.0138945 0)
(-0.00127975 -0.0143072 0)
(-0.000245175 -0.0141327 0)
(-0.000200046 -0.0143913 0)
(-8.61628e-05 -0.0154113 0)
(0.00016601 -0.0182304 0)
(0.000662623 -0.0141946 0)
(0.000456639 -0.0123674 0)
(-3.05173e-05 -0.0162492 0)
(-0.000371085 -0.0162676 0)
(0.00131617 -0.0161298 0)
(0.00108128 -0.0163423 0)
(0.00195638 -0.0155466 0)
(-0.00120997 -0.0154518 0)
(-0.002398 -0.0127259 0)
(-0.00282419 -0.0111576 0)
(0.000747857 -0.0129156 0)
(-0.000518784 -0.0110961 0)
(-0.000331997 -0.00920555 0)
(-0.00150404 -0.0104194 0)
(-0.00115402 -0.0108735 0)
(-0.00145623 -0.0101712 0)
(-0.00106625 -0.00998443 0)
(-0.000564527 -0.0115005 0)
(-0.000834286 -0.00745241 0)
(0.000431165 -0.00736422 0)
(0.00107234 -0.0121416 0)
(0.00125069 -0.0106762 0)
(-0.00352567 -0.00809809 0)
(0.000687568 -0.00814303 0)
(0.000610942 -0.00966034 0)
(0.00128643 -0.0100244 0)
(6.0264e-05 -0.01149 0)
(0.000758128 -0.0133306 0)
(0.000592529 -0.0153745 0)
(0.00150848 -0.0133406 0)
(0.00287848 -0.0134648 0)
(0.00402555 -0.0159918 0)
(-0.000485402 -0.0148338 0)
(0.00118273 -0.0158657 0)
(0.000962297 -0.0115307 0)
(0.0012619 -0.0113425 0)
(0.00192452 -0.01276 0)
(0.000418953 -0.0131254 0)
(0.000612767 -0.0155515 0)
(0.00118093 -0.0164023 0)
(0.000724357 -0.0169261 0)
(0.000243007 -0.0180269 0)
(-0.000545968 -0.0146861 0)
(-0.000195104 -0.0142425 0)
(0.0006955 -0.0174171 0)
(-3.34377e-05 -0.0252682 0)
(-0.0016755 -0.00475707 0)
(-0.00242986 -0.0168132 0)
(-0.000253078 -0.0091365 0)
(-0.00151359 -0.0131033 0)
(-0.00140541 -0.0121611 0)
(-0.000208558 -0.0131132 0)
(-0.00198617 -0.013637 0)
(-0.0020825 -0.0151465 0)
(-0.0035927 -0.0141374 0)
(0.000233347 -0.0154951 0)
(-9.35531e-06 -0.017437 0)
(0.000644912 -0.0171604 0)
(-0.000857516 -0.0166688 0)
(-0.00329326 -0.0149904 0)
(0.00265816 -0.0126188 0)
(-0.000380356 -0.0145067 0)
(0.000471131 -0.0155899 0)
(-0.000144774 -0.0146078 0)
(-0.00127001 -0.0127464 0)
(0.00267032 -0.0116659 0)
(0.00106066 -0.0130938 0)
(-0.000385109 -0.0136793 0)
(-0.00185539 -0.0133216 0)
(-0.000466005 -0.0132587 0)
(-0.000534371 -0.0135357 0)
(0.000285681 -0.013591 0)
(0.000179793 -0.0132551 0)
(-0.000239617 -0.0142411 0)
(-0.000432523 -0.0140308 0)
(0.00128774 -0.0119176 0)
(-0.00353593 -0.0118173 0)
(0.000224925 -0.0153343 0)
(0.0002116 -0.0142385 0)
(0.000847536 -0.0124428 0)
(0.00044091 -0.0139933 0)
(0.00195354 -0.0131023 0)
(9.86772e-05 -0.0134149 0)
(-0.00127322 -0.0126994 0)
(-0.00309308 -0.00847394 0)
(-0.00433599 -0.00947125 0)