/*--------------------------------*- C++ -*----------------------------------*\
  =========                 |
  \\      /  F ield         | OpenFOAM: The Open Source CFD Toolbox
   \\    /   O peration     | Website:  https://openfoam.org
    \\  /    A nd           | Version:  12
     \\/     M anipulation  |
\*---------------------------------------------------------------------------*/
FoamFile
{
    format      ascii;
    class       IOPosition;
    location    "0.9/lagrangian/cloud";
    object      positions;
}
// * * * * * * * * * * * * * * * * * * * * * * * * * * * * * * * * * * * * * //

1726
(
(0.175049 0.341713 0.070763 0.412476) 0 1 1
(0.249257 0.213505 0.161867 0.375372) 1 3 1
(0.39555 0.238029 0.064196 0.302225) 2 5 1
(0.379295 0.284675 0.025677 0.310352) 3 7 1
(0.230058 0.384971 0.237236 0.147735) 4 9 2
(0.0166426 0.14362 0.348059 0.491679) 5 11 1
(0.424841 0.0288158 0.287579 0.258763) 4 7379 2
(0.489636 0.140088 0.255182 0.115094) 5 7380 2
(0.567728 0.216136 0.180925 0.0352111) 6 7381 1
(0.091711 0.454144 0.182106 0.272038) 7 12 1
(0.413692 0.293154 0.0104295 0.282724) 8 17 2
(0.0201042 0.147921 0.342027 0.489948) 9 16 2
(0.263733 0.0204758 0.368134 0.347658) 9 18 2
(0.253233 0.0803384 0.293045 0.373384) 10 21 1
(0.193838 0.0286714 0.403081 0.374409) 11 22 2
(0.260928 0.109912 0.369536 0.259625) 12 24 2
(0.0806563 0.171264 0.459672 0.288407) 13 26 2
(0.256475 0.0653844 0.371762 0.306378) 14 28 2
(0.473815 0.263092 0.21418 0.0489124) 15 7390 1
(0.161078 0.419461 0.209934 0.209528) 15 30 1
(0.511419 0.0506586 0.24429 0.193632) 16 7391 2
(0.441385 0.192809 0.279307 0.0864988) 17 7392 2
(0.56292 0.143754 0.21854 0.0747857) 19 7394 2
(0.0743681 0.17543 0.462816 0.287386) 21 42 2
(0.336019 0.131887 0.200103 0.33199) 22 45 1
(0.370841 0.21646 0.0981193 0.314579) 23 47 1
(0.432244 0.283878 0.184563 0.0993154) 24 49 2
(0.246876 0.376562 0.300967 0.0755945) 24 48 1
(0.398202 0.00880875 0.300899 0.29209) 25 7400 2
(0.23221 0.383895 0.30841 0.0754852) 26 52 1
(0.470466 0.264767 0.183415 0.0813519) 28 54 1
(0.224334 0.387833 0.0233234 0.36451) 29 59 2
(0.0813386 0.158683 0.459331 0.300647) 29 58 2
(0.572892 0.213554 0.142728 0.0708253) 31 7406 1
(0.192676 0.207924 0.403662 0.195738) 106 63 1
(0.380088 0.0390718 0.309956 0.270884) 32 64 2
(0.455595 0.0896084 0.182594 0.272203) 33 67 1
(0.406396 0.296802 0.0459266 0.250875) 34 7409 1
(0.0129249 0.493538 0.012638 0.480899) 35 71 2
(0.189018 0.234771 0.17072 0.405491) 35 71 1
(0.114673 0.442664 0.158084 0.284579) 36 73 2
(0.258924 0.0671954 0.303342 0.370538) 36 73 1
(0.226291 0.386855 0.16229 0.224565) 37 75 2
(0.21546 0.39227 0.135841 0.25643) 38 74 1
(0.135711 0.432144 0.136805 0.295339) 39 76 1
(0.181656 0.409172 0.101363 0.307809) 40 78 1
(0.46671 0.266645 0.0532465 0.213399) 41 80 1
(0.0822925 0.213814 0.458854 0.245039) 116 83 1
(0.261872 0.363435 0.00562951 0.369064) 42 85 1
(0.0293215 0.485339 0.207369 0.27797) 78 153 1
(0.173693 0.0253546 0.413154 0.387799) 78 155 2
(0.604248 0.197876 0.181604 0.0162721) 80 157 1
(0.554271 0.222865 0.199637 0.0232276) 81 13 2
(0.0629796 0.161548 0.46851 0.306962) 82 15 1
(0.122305 0.438847 0.0729634 0.365884) 156 162 2
(0.629284 0.185358 0.00212627 0.183232) 155 306 1
(0.115723 0.442138 0.19218 0.249958) 82 164 2
(0.0489402 0.0726698 0.47553 0.40286) 82 163 2
(0.259079 0.37046 0.333526 0.0369348) 83 166 2
(0.24952 0.0277554 0.37524 0.347484) 83 165 2
(0.239856 0.380072 0.107035 0.273037) 84 168 2
(0.4687 0.14877 0.11688 0.26565) 84 168 1
(0.332545 0.333727 0.151073 0.182654) 88 27 2
(0.457593 0.271204 0.21185 0.0593536) 89 177 1
(0.237586 0.381207 0.225991 0.155216) 91 33 2
(0.210048 0.394976 0.194284 0.200691) 92 35 2
(0.145555 0.367508 0.0597146 0.427222) 18 37 1
(0.0287071 0.485646 0.445656 0.0399906) 94 187 1
(0.175294 0.321882 0.0904711 0.412353) 92 184 1
(0.302832 0.348584 0.121998 0.226586) 93 186 2
(0.0501042 0.115769 0.359179 0.474948) 94 185 2
(0.0630522 0.468474 0.168959 0.299515) 98 193 1
(0.245291 0.377355 0.331153 0.0462021) 100 51 2
(0.0015039 0.167725 0.331523 0.499248) 26 53 1
(0.0181052 0.490947 0.119941 0.371006) 172 194 2
(0.270255 0.364872 0.159764 0.205109) 173 196 2
(0.176088 0.386869 0.411956 0.0250863) 174 198 1
(0.134813 0.432594 0.177558 0.255035) 100 200 2
(0.257172 0.093917 0.277497 0.371414) 100 200 1
(0.229592 0.385204 0.0579836 0.32722) 101 202 2
(0.226611 0.265201 0.121493 0.386694) 101 202 1
(0.0109116 0.181925 0.312619 0.494544) 102 201 2
(0.32705 0.336475 0.121332 0.215143) 105 61 2
(0.384861 0.307569 0.0683533 0.239216) 107 65 2
(0.506047 0.246976 0.237943 0.0090337) 108 67 2
(0.234873 0.382563 0.122649 0.259914) 109 215 1
(0.478412 0.00158035 0.259213 0.260794) 109 218 1
(0.238682 0.323713 0.0569462 0.380659) 110 220 1
(0.00474752 0.497626 0.330145 0.167481) 111 222 2
(0.649273 0.152142 0.175363 0.0232218) 112 75 1
(0.311249 0.344375 0.305016 0.0393598) 113 223 1
(0.274115 0.362942 0.025225 0.337717) 183 364 1
(0.649076 0.175462 0.0114674 0.163994) 184 366 1
(0.275046 0.362477 0.0373151 0.325162) 151 301 2
(0.226716 0.386642 0.252909 0.133732) 229 307 2
(0.296073 0.351963 0.0358238 0.316139) 230 455 1
(0.165597 0.0290624 0.388139 0.417202) 156 308 2
(0.311535 0.0523085 0.291924 0.344232) 158 312 2
(0.543134 0.0201691 0.228433 0.208264) 159 168 1
(0.270318 0.364841 0.0636871 0.301154) 160 170 2
(0.167937 0.416031 0.199486 0.216545) 161 172 2
(0.221349 0.389326 0.300003 0.0893222) 162 174 2
(0.00619556 0.395879 0.496902 0.101023) 163 176 1
(0.0212933 0.489353 0.303385 0.185968) 91 182 2
(0.12325 0.335782 0.438375 0.102593) 237 323 1
(0.25427 0.372865 0.367522 0.00534289) 163 325 2
(0.190915 0.404543 0.0248429 0.3797) 164 327 2
(0.191388 0.227009 0.177297 0.404306) 164 327 1
(0.261012 0.369494 0.109329 0.260165) 165 329 2
(0.228444 0.120478 0.2653 0.385778) 165 329 1
(0.223718 0.388141 0.148853 0.239288) 166 331 2
(0.189399 0.158118 0.247183 0.405301) 166 331 1
(0.215426 0.392287 0.211675 0.180612) 167 333 2
(0.0318214 0.0921649 0.391924 0.484089) 168 332 2
(0.271643 0.0035688 0.364178 0.36061) 168 334 2
(0.46754 0.14387 0.12236 0.26623) 170 339 1
(0.296857 0.351572 0.130123 0.221449) 172 343 2
(0.117558 0.441221 0.355674 0.0855467) 173 345 2
(0.102972 0.448514 0.349978 0.0985357) 174 347 2
(0.172074 0.413963 0.251712 0.162251) 175 349 2
(0.430943 0.284528 0.126919 0.15761) 177 204 2
(0.254369 0.372816 0.172783 0.200032) 178 206 2
(0.0816068 0.459197 0.414084 0.0451122) 180 210 2
(0.13707 0.431465 0.185398 0.246067) 181 212 2
(0.105358 0.397267 0.0500545 0.447321) 179 357 1
(0.300153 0.349923 0.20405 0.145873) 180 359 2
(0.355733 0.322134 0.303986 0.0181479) 181 360 1
(0.341911 0.329045 0.0215362 0.307509) 182 214 2
(0.368937 0.315531 0.0482379 0.267293) 183 362 1
(0.3535 0.32325 0.153212 0.170038) 225 299 2
(0.357392 0.321304 0.0483797 0.272924) 227 303 2
(0.235834 0.182131 0.199952 0.382083) 228 454 1
(0.0613188 0.469341 0.407898 0.0614425) 304 604 1
(0.0345283 0.482736 0.254379 0.228357) 231 457 1
(0.262211 0.368895 0.319903 0.0489912) 231 459 1
(0.507067 0.246467 0.17532 0.0711464) 232 461 1
(0.39728 0.0968822 0.30136 0.204478) 233 315 1
(0.269435 0.216865 0.365283 0.148418) 234 317 1
(0.105872 0.447064 0.105799 0.341265) 161 321 2
(0.219341 0.12604 0.39033 0.26429) 309 466 1
(0.227869 0.290523 0.0955426 0.386066) 235 468 1
(0.060081 0.084847 0.385112 0.46996) 236 467 2
(0.295987 0.251992 0.100015 0.352007) 236 470 1
(0.0892706 0.437023 0.0183419 0.455365) 237 472 1
(0.10329 0.0314675 0.416887 0.448355) 238 471 2
(0.18656 0.268621 0.138099 0.40672) 238 474 1
(0.194748 0.402626 0.330595 0.0720313) 239 476 2
(0.188765 0.405617 0.292231 0.113386) 240 478 2
(0.173276 0.413362 0.315569 0.0977933) 241 480 2
(0.199538 0.400231 0.304749 0.095482) 242 482 2
(0.230151 0.384924 0.318852 0.066072) 243 484 2
(0.297854 0.236801 0.351073 0.114272) 244 337 1
(0.0579474 0.471026 0.343374 0.127653) 245 487 1
(0.436964 0.281518 0.187212 0.0943055) 247 343 2
(0.278497 0.360752 0.00896482 0.351787) 248 494 2
(0.0554019 0.0954614 0.376838 0.472299) 249 493 2
(0.0887099 0.0799219 0.455645 0.375723) 249 495 2
(0.266498 0.00401577 0.366751 0.362735) 250 497 2
(0.240788 0.0990093 0.280597 0.379606) 251 500 1
(0.186004 0.107868 0.299129 0.406998) 252 502 1
(0.032742 0.483629 0.137532 0.346097) 254 506 2
(0.526592 0.236704 0.00675551 0.229949) 255 505 1
(0.280561 0.359719 0.351638 0.00808184) 256 361 2
(0.374095 0.228485 0.312952 0.0844672) 256 361 1
(0.346949 0.326525 0.162316 0.16421) 257 363 2
(0.0312887 0.484356 0.0579812 0.426374) 301 596 1
(0.467153 0.266423 0.0430014 0.223422) 303 600 1
(0.505492 0.127499 0.247254 0.119755) 378 603 1
(0.117301 0.44135 0.143384 0.297965) 379 605 2
(0.054645 0.472678 0.200792 0.271885) 305 607 2
(0.107953 0.142154 0.30387 0.446024) 305 607 1
(0.105212 0.447394 0.356012 0.0913817) 306 609 2
(0.0769227 0.00630184 0.455237 0.461539) 307 608 2
(0.162713 0.263699 0.154945 0.418644) 307 611 1
(0.223726 0.388137 0.186731 0.201406) 308 613 2
(0.221836 0.0620546 0.327027 0.389082) 308 613 1
(0.103711 0.0839563 0.364188 0.448144) 309 615 1
(0.383412 0.308294 0.290047 0.0182475) 311 616 1
(0.069873 0.0786056 0.465063 0.386458) 311 618 2
(0.184024 0.407988 0.0726428 0.335345) 313 623 2
(0.187943 0.216071 0.189958 0.406029) 314 625 1
(0.193296 0.000389539 0.403352 0.402962) 315 626 2
(0.0225113 0.0914062 0.397338 0.488744) 317 628 2
(0.0171542 0.116818 0.374605 0.491423) 318 630 2
(0.171387 0.04048 0.414306 0.373827) 318 632 2
(0.237381 0.00195861 0.381309 0.379351) 319 634 2
(0.239089 0.356395 0.380456 0.024061) 320 488 1
(0.280962 0.359519 0.120063 0.239456) 321 490 2
(0.233957 0.383021 0.210788 0.172234) 322 492 2
(0.180107 0.0695896 0.409947 0.340357) 322 640 2
(0.40153 0.0443137 0.254921 0.299235) 323 643 1
(0.262914 0.300316 0.0682267 0.368543) 324 645 1
(0.262428 0.368786 0.360044 0.008742) 325 647 2
(0.0163058 0.491847 0.46564 0.0262075) 401 797 1
(0.0883213 0.455839 0.0754718 0.380368) 404 801 1
(0.0812811 0.459359 0.0867533 0.372606) 330 657 2
(0.103086 0.448457 0.31846 0.129997) 330 656 1
(0.455278 0.0144221 0.272361 0.257939) 331 510 1
(0.519785 0.200994 0.240107 0.0391132) 332 512 1
(0.342786 0.328607 0.139816 0.18879) 333 514 2
(0.120453 0.439774 0.414605 0.0251688) 375 745 1
(0.236309 0.381846 0.257906 0.123939) 377 601 2
(0.312095 0.103193 0.343952 0.24076) 451 748 1
(0.309539 0.316233 0.34523 0.0289977) 452 750 1
(0.445509 0.277246 0.175435 0.10181) 453 752 2
(0.007347 0.496327 0.308441 0.187886) 453 900 1
(0.29027 0.189428 0.354865 0.165437) 454 754 1
(0.176688 0.411656 0.0191149 0.392541) 455 756 2
(0.00299987 0.4985 0.278145 0.220355) 381 758 2
(0.0458816 0.477059 0.100883 0.376176) 382 760 2
(0.0397719 0.0241825 0.455932 0.480114) 383 759 2
(0.480922 0.259539 0.14665 0.112889) 384 761 1
(0.472687 0.263657 0.262474 0.00118291) 385 617 2
(0.14675 0.426625 0.165556 0.261069) 386 765 1
(0.128627 0.435686 0.279739 0.155948) 387 767 1
(0.374641 0.00208224 0.310597 0.31268) 388 769 2
(0.231643 0.0275438 0.384178 0.356635) 389 773 2
(0.224314 0.00595727 0.381886 0.387843) 390 776 1
(0.20592 0.0204475 0.376593 0.39704) 391 778 1
(0.211033 0.0018313 0.392652 0.394483) 392 780 1
(0.22448 0.00973848 0.378021 0.38776) 393 782 1
(0.221391 0.0499899 0.339315 0.389305) 394 784 1
(0.285801 0.104413 0.252687 0.357099) 395 786 1
(0.217652 0.322051 0.391174 0.0691233) 396 639 1
(0.414254 0.292873 0.0876446 0.205228) 397 641 2
(0.469323 0.265339 0.115231 0.150107) 398 643 2
(0.283909 0.358045 0.100281 0.257764) 399 794 2
(0.193842 0.0488131 0.354266 0.403079) 400 793 2
(0.0143486 0.139025 0.492826 0.353801) 400 795 2
(0.1379 0.43105 0.248219 0.182831) 477 800 2
(0.326812 0.0236363 0.312958 0.336594) 403 799 2
(0.393175 0.303413 0.231475 0.0719375) 478 802 2
(0.280998 0.359501 0.267063 0.0924374) 479 804 2
(0.0872911 0.324069 0.132286 0.456354) 405 806 1
(0.286874 0.356563 0.18252 0.174043) 407 809 1
(0.0625394 0.46873 0.445878 0.0228523) 450 894 1
(0.20539 0.386252 0.0110532 0.397305) 450 895 1
(0.034674 0.482663 0.427385 0.0552783) 526 897 2
(0.215241 0.137443 0.392379 0.254937) 526 897 1
(0.180907 0.195668 0.409546 0.213878) 527 899 1
(0.224861 0.0240769 0.38757 0.363493) 528 901 1
(0.0329107 0.483545 0.329242 0.154303) 455 905 2
(0.128785 0.378912 0.0566954 0.435607) 456 907 1
(0.145051 0.229057 0.198418 0.427475) 457 909 1
(0.113459 0.443271 0.303218 0.140053) 458 910 1
(0.148499 0.42575 0.0617958 0.363955) 460 912 1
(0.292001 0.354 0.232029 0.121971) 461 768 2
(0.350235 0.0750215 0.324882 0.249861) 462 770 1
(0.207334 0.396333 0.0570382 0.339295) 464 920 1
(0.192562 0.0560795 0.347639 0.403719) 464 923 1
(0.26102 0.0921346 0.277356 0.36949) 465 925 1
(0.224699 0.217167 0.170483 0.38765) 466 927 1
(0.203102 0.22491 0.173539 0.398449) 467 929 1
(0.183995 0.0234921 0.38451 0.408003) 468 931 1
(0.179444 0.410278 0.0385452 0.371733) 470 935 2
(0.449473 0.264253 0.275263 0.0110107) 471 788 1
(0.316959 0.34152 0.0584815 0.283039) 472 790 2
(0.311993 0.344003 0.111171 0.232832) 473 792 2
(0.108486 0.445757 0.0813183 0.364439) 474 943 2
(0.104345 0.0658248 0.447828 0.382003) 474 942 2
(0.224292 0.22288 0.164974 0.387854) 475 945 1
(0.267775 0.366112 0.294126 0.0719862) 476 947 2
(0.170226 0.414887 0.399901 0.0149862) 477 949 2
(0.249799 0.3751 0.0971107 0.27799) 553 951 2
(0.32681 0.336595 0.308265 0.0283306) 554 953 2
(0.0384244 0.131585 0.480788 0.349203) 479 952 2
(0.237086 0.381457 0.350571 0.0308864) 481 956 1
(0.15294 0.42353 0.100268 0.323262) 525 1044 2
(0.0861181 0.456941 0.327864 0.129077) 526 1046 2
(0.0984817 0.450759 0.114255 0.336504) 528 1050 2
(0.012788 0.0887774 0.493606 0.404829) 529 1051 2
(0.208379 0.395811 0.264196 0.131615) 531 1056 2
(0.538057 0.230972 0.142482 0.0884894) 533 911 2
(0.282648 0.358676 0.0736823 0.284994) 534 913 2
(0.267223 0.366389 0.0207382 0.34565) 535 915 2
(0.237046 0.305743 0.381477 0.0757344) 536 917 1
(0.112513 0.0257434 0.443744 0.418) 537 919 1
(0.416146 0.275852 0.0160753 0.291927) 538 1070 1
(0.483192 0.258404 0.0755096 0.182894) 539 1072 2
(0.30688 0.0607233 0.285837 0.34656) 540 1071 2
(0.447153 0.276423 0.120183 0.15624) 541 1076 2
(0.216781 0.39161 0.025888 0.365722) 543 1080 2
(0.220496 0.341631 0.0481208 0.389752) 544 1082 1
(0.199396 0.162602 0.2377 0.400302) 545 1084 1
(0.0615023 0.0660815 0.469249 0.403167) 546 1085 2
(0.172765 0.413617 0.0702011 0.343416) 548 1090 2
(0.154743 0.422629 0.253902 0.168727) 549 1092 2
(0.189066 0.405467 0.261138 0.144329) 550 1094 2
(0.231296 0.384352 0.144986 0.239366) 551 1096 2
(0.223796 0.00455246 0.383549 0.388102) 552 1095 2
(0.133254 0.433373 0.0028657 0.430507) 553 1100 2
(0.243582 0.378209 0.363541 0.0146685) 629 1250 1
(0.0655541 0.108001 0.467223 0.359222) 630 1104 1
(0.278702 0.0389747 0.360649 0.321674) 555 955 1
(0.281743 0.15578 0.359129 0.203348) 556 957 1
(0.0288213 0.15448 0.485589 0.331109) 600 1192 2
(0.195322 0.0937193 0.30862 0.402339) 602 1197 1
(0.238498 0.14808 0.23267 0.380751) 604 1201 1
(0.240109 0.379945 0.220143 0.159802) 606 1205 2
(0.284637 0.357682 0.00436306 0.353319) 607 1058 2
(0.289114 0.190461 0.355443 0.164982) 608 1060 1
(0.243159 0.114409 0.378421 0.264011) 609 1062 1
(0.242214 0.378893 0.373949 0.00494346) 610 1212 1
(0.26754 0.0134582 0.36623 0.352772) 611 1066 1
(0.335832 0.133103 0.332084 0.198981) 612 1068 1
(0.484663 0.105347 0.257668 0.152321) 613 1070 1
(0.400015 0.157138 0.299992 0.142855) 614 1072 1
(0.378558 0.0103895 0.310721 0.300332) 615 1074 1
(0.20391 0.398045 0.348499 0.0495462) 616 1224 1
(0.235936 0.0998866 0.282146 0.382032) 617 1227 1
(0.22191 0.389045 0.0299297 0.359115) 619 1231 2
(0.202786 0.315692 0.0829154 0.398607) 620 1233 1
(0.133035 0.0261404 0.433483 0.407342) 621 1234 2
(0.201108 0.399446 0.00319527 0.396251) 699 1387 1
(0.0741337 0.462933 0.266218 0.196715) 625 1243 2
(0.156805 0.320176 0.101422 0.421597) 626 1245 1
(0.141161 0.0841169 0.345302 0.429419) 627 1247 1
(0.0199885 0.0515872 0.438419 0.490006) 629 1248 2
(0.0557507 0.472125 0.0417083 0.430416) 705 1253 2
(0.0755962 0.192515 0.269687 0.462202) 631 1255 1
(0.000243341 0.499878 0.382552 0.117326) 631 1254 1
(0.256372 0.0494272 0.371814 0.322387) 632 1108 1
(0.00104006 0.49948 0.223225 0.276255) 676 1341 1
(0.585825 0.0539044 0.153183 0.207087) 678 1348 1
(0.365899 0.31705 0.0904638 0.226586) 680 1352 2
(0.0860783 0.168074 0.456961 0.288887) 681 1353 2
(0.216377 0.33219 0.0596214 0.391812) 683 1358 1
(0.0714572 0.464271 0.40238 0.0618916) 685 1362 2
(0.231269 0.026859 0.384365 0.357506) 685 1213 1
(0.303404 0.182709 0.348298 0.165589) 686 1215 1
(0.333799 0.3331 0.0496135 0.283487) 687 1217 2
(0.354832 0.322584 0.279001 0.0435835) 688 1219 2
(0.0328887 0.483556 0.138254 0.345302) 689 1367 1
(0.268714 0.0296469 0.365643 0.335996) 689 1221 1
(0.200889 0.190604 0.399556 0.208951) 690 1223 1
(0.197884 0.235651 0.401058 0.165407) 691 1225 1
(0.532211 0.233895 0.055463 0.178432) 693 1378 2
(0.299214 0.194013 0.15638 0.350393) 694 1380 1
(0.152879 0.0589768 0.423561 0.364584) 695 1381 2
(0.261396 0.369302 0.0890143 0.280288) 697 1386 2
(0.107944 0.446028 0.436239 0.00978912) 699 1390 2
(0.325511 0.115226 0.222019 0.337245) 700 1392 1
(0.0949569 0.096694 0.452522 0.355828) 702 1395 2
(0.259761 0.274043 0.370119 0.096076) 779 1400 1
(0.0216717 0.489164 0.147451 0.341713) 706 1404 2
(0.156858 0.421571 0.252481 0.16909) 707 1406 2
(0.210745 0.01741 0.394627 0.377217) 707 1257 1
(0.29155 0.242042 0.354225 0.112183) 708 1259 1
(0.270525 0.364737 0.0370449 0.327692) 709 1261 2
(0.210697 0.122955 0.394652 0.271697) 750 1342 1
(0.592032 0.203984 0.108849 0.0951354) 752 1494 1
(0.54611 0.105006 0.121939 0.226945) 753 1497 1
(0.0369759 0.346002 0.481512 0.135511) 754 1498 2
(0.820487 0.0897567 0.0890959 0.000660733) 756 1503 2
(0.66078 0.0872153 0.0823949 0.16961) 757 1505 1
(0.277039 0.36148 0.23001 0.13147) 759 1509 2
(0.212818 0.304261 0.0893303 0.393591) 761 1513 1
(0.0841993 0.0513047 0.4579 0.406596) 762 1514 2
(0.139524 0.430238 0.0521989 0.378039) 765 1521 2
(0.107688 0.446156 0.40783 0.0383261) 765 1372 2
(0.155154 0.112211 0.422423 0.310212) 765 1372 1
(0.245774 0.377113 0.167735 0.209379) 766 1374 2
(0.195138 0.000967581 0.402431 0.401464) 766 1374 1
(0.237505 0.377173 0.381247 0.00407398) 767 1376 1
(0.105789 0.447106 0.117096 0.330009) 768 1524 1
(0.241674 0.379163 0.344133 0.0350298) 768 1526 1
(0.598229 0.0670141 0.133871 0.200885) 770 1528 2
(0.497531 0.10722 0.144015 0.251234) 771 1533 1
(0.566975 0.0907159 0.125797 0.216513) 772 1535 1
(0.867629 0.0516777 0.0661857 0.014508) 774 1390 1
(0.000428705 0.499786 0.263852 0.235934) 776 1540 1
(0.324461 0.337769 0.281075 0.0566948) 777 1544 1
(0.21118 0.39441 0.136023 0.258387) 780 1551 2
(0.277409 0.361296 0.129645 0.23165) 782 1555 2
(0.164375 0.417813 0.111605 0.306208) 783 1557 2
(0.0772525 0.461374 0.170277 0.291096) 784 1556 1
(0.2902 0.350993 0.3549 0.0039074) 859 1559 1
(0.203744 0.398128 0.125907 0.27222) 785 1561 2
(0.304162 0.347919 0.223753 0.124166) 825 1640 2
(0.163675 0.418162 0.0958543 0.322308) 825 1491 2
(0.231831 0.384085 0.330617 0.0534676) 826 1493 2
(0.0814726 0.459264 0.270134 0.189129) 827 1495 2
(0.199212 0.400394 0.271954 0.12844) 828 1497 2
(0.248668 0.375666 0.167042 0.208623) 829 1499 2
(0.14029 0.429855 0.0781937 0.351661) 830 1501 2
(0.0014254 0.150656 0.499287 0.348632) 831 1503 1
(0.106652 0.446674 0.317539 0.129135) 833 1507 2
(0.00887683 0.17564 0.495562 0.319921) 834 1657 2
(0.106075 0.0759519 0.37101 0.446962) 836 1659 2
(0.201865 0.399068 0.356812 0.0422556) 837 1664 2
(0.210756 0.30697 0.0876519 0.394622) 838 1666 1
(0.213034 0.180922 0.212561 0.393483) 839 1668 1
(0.331999 0.334 0.33232 0.00168043) 840 1669 1
(0.321595 0.18275 0.339202 0.156452) 841 1523 1
(0.315153 0.342424 0.0392914 0.303132) 842 1525 2
(0.270988 0.364506 0.274655 0.0898509) 843 1527 2
(0.0628691 0.468565 0.383448 0.0851175) 843 1675 1
(0.241777 0.208895 0.379111 0.170216) 844 1529 1
(0.291716 0.321617 0.354142 0.0325247) 845 1531 1
(0.317912 0.341044 0.117207 0.223837) 846 1533 2
(0.365708 0.14828 0.317146 0.168866) 847 1535 1
(0.209782 0.395109 0.376584 0.0185252) 850 1541 2
(0.204564 0.397718 0.323061 0.0746565) 852 1545 2
(0.165016 0.417492 0.0500278 0.367464) 853 1693 1
(0.313481 0.343259 0.170468 0.172792) 856 1553 2
(0.187238 0.406381 0.228072 0.178309) 857 1701 1
(0.648518 0.175741 0.107837 0.0679041) 932 1704 2
(0.108102 0.0125279 0.445949 0.433421) 932 1704 1
(0.0656391 0.404196 0.0629846 0.46718) 858 1706 1
(0.0932959 0.453352 0.0942805 0.359072) 934 1708 2
(0.139691 0.430154 0.366653 0.0635012) 900 1789 2
(0.27539 0.362305 0.360445 0.0018603) 901 1791 2
(0.262895 0.236984 0.131569 0.368552) 902 1793 1
(0.250526 0.326676 0.0480609 0.374737) 827 1644 1
(0.120892 0.439554 0.0907709 0.348783) 903 1646 2
(0.0335822 0.483209 0.0585696 0.424639) 904 1794 1
(0.167678 0.258661 0.416161 0.1575) 904 1648 1
(0.193445 0.403278 0.205819 0.197459) 905 1650 2
(0.1232 0.4384 0.00603933 0.432361) 906 1798 1
(0.43661 0.202329 0.0793666 0.281695) 906 1801 1
(0.00834534 0.252061 0.495827 0.243766) 831 1651 2
(0.0767913 0.451575 0.461604 0.0100291) 907 1654 1
(0.114132 0.442934 0.236663 0.206271) 908 1656 2
(0.159928 0.168961 0.420036 0.251075) 908 1656 1
(0.151967 0.424016 0.133435 0.290582) 909 1658 2
(0.245297 0.13635 0.241002 0.377352) 909 1807 1
(0.265954 0.273006 0.0940172 0.367023) 910 1809 1
(0.248156 0.226046 0.149876 0.375922) 911 1811 1
(0.245626 0.0724794 0.304707 0.377187) 912 1813 1
(0.125223 0.0978983 0.437389 0.33949) 913 1814 2
(0.372618 0.313691 0.0458138 0.267877) 915 1670 2
(0.30546 0.34727 0.0716345 0.275635) 916 1672 2
(0.298678 0.350661 0.0929289 0.257732) 917 1674 2
(0.286313 0.356843 0.151964 0.204879) 918 1676 2
(0.278622 0.360689 0.275067 0.0856218) 919 1678 2
(0.152437 0.423782 0.0663003 0.357481) 920 1826 1
(0.134635 0.432682 0.376189 0.056493) 920 1828 1
(0.204596 0.397702 0.394858 0.00284375) 921 1830 1
(0.0218046 0.489098 0.0611672 0.427931) 923 1832 1
(0.189448 0.324828 0.0804477 0.405276) 851 1692 1
(0.262002 0.368999 0.0251557 0.343843) 927 1694 2
(0.265769 0.249061 0.367115 0.118054) 929 1698 1
(0.146107 0.263093 0.163853 0.426947) 855 1700 1
(0.47371 0.263145 0.0262984 0.236847) 931 1702 2
(0.519424 0.240288 0.165307 0.0749805) 1006 1999 1
(0.831915 0.0333437 0.0840423 0.0506986) 1007 1853 1
(0.579168 0.210416 0.133901 0.076515) 1008 2001 1
(0.192441 0.403779 0.142285 0.261494) 1008 2003 1
(0.271126 0.329249 0.0351875 0.364437) 975 1938 1
(0.260546 0.369727 0.112637 0.25709) 976 1940 2
(0.0996422 0.0937509 0.450179 0.356428) 976 1939 2
(0.285747 0.105719 0.251408 0.357127) 977 1942 1
(0.262783 0.228708 0.1399 0.368609) 978 1944 1
(0.190093 0.0342491 0.404954 0.370705) 1054 1946 1
(0.195314 0.402343 0.0280277 0.374315) 980 1945 1
(0.277745 0.361127 0.0928539 0.268273) 981 1947 1
(0.117104 0.441448 0.127961 0.313488) 982 1949 1
(0.124797 0.139171 0.437602 0.29843) 982 1803 1
(0.312368 0.343816 0.230535 0.113281) 983 1805 2
(0.232262 0.383869 0.347999 0.0358705) 983 1953 1
(0.458742 0.226695 0.0439345 0.270629) 984 1956 1
(0.320525 0.339737 0.190231 0.149506) 985 1958 2
(0.296895 0.351553 0.0650084 0.286544) 986 1960 2
(0.140273 0.139721 0.290142 0.429863) 987 1959 2
(0.164152 0.147923 0.270001 0.417924) 988 1961 2
(0.0148495 0.492575 0.346096 0.146479) 989 1963 1
(0.0861467 0.456927 0.107189 0.349738) 990 1965 1
(0.275284 0.362358 0.341466 0.0208917) 991 1821 2
(0.277092 0.361454 0.14841 0.213043) 992 1823 2
(0.285984 0.357008 0.324256 0.0327517) 993 1974 2
(0.468986 0.103338 0.162169 0.265507) 994 1976 1
(0.142319 0.204082 0.428841 0.224758) 995 1977 2
(0.179121 0.176046 0.41044 0.234394) 996 1831 1
(0.200287 0.259124 0.399857 0.140733) 997 1833 1
(0.0210531 0.266224 0.22325 0.489473) 923 1835 1
(0.274072 0.117544 0.24542 0.362964) 924 1837 1
(0.128602 0.0670028 0.435699 0.368696) 925 1838 2
(0.220464 0.141039 0.248729 0.389768) 928 1845 1
(0.299988 0.350006 0.277852 0.0721542) 1005 1849 2
(0.0700445 0.464978 0.189198 0.27578) 1006 1997 1
(0.216771 0.391615 0.00532062 0.386294) 1004 1996 2
(0.297244 0.351378 0.0232086 0.328169) 1080 2144 1
(0.295389 0.352305 0.204907 0.147399) 1080 2146 1
(0.605898 0.197051 0.179264 0.0177871) 1081 2148 1
(0.228315 0.385842 0.00119275 0.38465) 1051 2089 2
(0.20889 0.395555 0.151617 0.243939) 1052 2091 2
(0.0409923 0.123806 0.479504 0.355698) 1053 2092 2
(0.546611 0.105614 0.226695 0.121081) 1055 1948 1
(0.319653 0.340173 0.0769023 0.263271) 1056 1950 2
(0.30734 0.34633 0.305799 0.0405306) 1057 1952 2
(0.103213 0.448393 0.342265 0.106129) 1057 2100 1
(0.352485 0.190412 0.323758 0.133345) 1058 1954 1
(0.439391 0.280304 0.173737 0.106568) 1059 1956 2
(0.256311 0.371844 0.175426 0.196418) 1060 2107 2
(0.288375 0.355812 0.0930467 0.262766) 1061 2109 2
(0.241733 0.379134 0.0941853 0.284948) 1062 2111 2
(0.384493 0.0677339 0.307754 0.24002) 1062 1962 1
(0.381056 0.198729 0.309472 0.110743) 1063 1964 1
(0.284701 0.357649 0.00754393 0.350106) 1064 1966 2
(0.296058 0.351971 0.0300721 0.321899) 1065 1968 2
(0.143971 0.0469831 0.428015 0.381031) 1066 2118 2
(0.2441 0.37795 0.0750368 0.302913) 1068 2123 2
(0.263575 0.368213 0.288431 0.0797821) 1069 2125 2
(0.332337 0.333832 0.118033 0.215799) 1070 1978 2
(0.2914 0.3543 0.0435233 0.310777) 1071 1980 2
(0.223638 0.388181 0.167545 0.220636) 1072 1982 2
(0.263288 0.368356 0.336181 0.0321753) 1073 1984 2
(0.308562 0.345719 0.00705412 0.338665) 999 1986 2
(0.0432687 0.207399 0.270966 0.478366) 1000 1985 2
(0.103463 0.448269 0.439741 0.00852732) 1000 1988 2
(0.166854 0.416573 0.045228 0.371345) 1076 2136 1
(0.140217 0.429891 0.00339714 0.426494) 1002 1992 2
(0.0653222 0.155045 0.312294 0.467339) 1003 1991 2
(0.37037 0.314815 0.189425 0.12539) 1077 2141 2
(0.00546691 0.227154 0.497267 0.270112) 1077 2140 2
(0.514387 0.115641 0.127165 0.242806) 1078 2143 1
(0.302796 0.348602 0.279843 0.0687594) 1079 2145 2
(0.152874 0.132647 0.423563 0.290916) 1125 2235 2
(0.651166 0.0193152 0.155102 0.174417) 1128 2239 2
(0.470698 0.264651 0.166762 0.0978888) 1129 2243 1
(0.279358 0.360321 0.221587 0.138734) 1131 2099 2
(0.274405 0.362798 0.00480494 0.357993) 1132 2101 2
(0.275928 0.362036 0.139143 0.222893) 1134 2254 2
(0.252116 0.373942 0.0468416 0.3271) 1135 2256 2
(0.0770865 0.0490425 0.461457 0.412414) 1135 2255 2
(0.164289 0.296362 0.121494 0.417855) 1136 2258 1
(0.234378 0.382811 0.120359 0.262451) 1137 2260 2
(0.294261 0.106143 0.246727 0.35287) 1137 2260 1
(0.265758 0.367121 0.142371 0.22475) 1138 2262 2
(0.0746986 0.460881 0.462651 0.00176983) 1138 2113 1
(0.0762834 0.461858 0.113655 0.348203) 1139 2261 1
(0.27336 0.0905896 0.36332 0.27273) 1139 2115 1
(0.261422 0.0494802 0.319809 0.369289) 1141 2265 2
(0.139068 0.0742835 0.356183 0.430466) 1142 2267 2
(0.301493 0.349254 0.112049 0.237205) 1143 2272 2
(0.355424 0.296831 0.0254568 0.322288) 1144 2274 1
(0.194554 0.245389 0.402723 0.157334) 1145 2127 1
(0.134086 0.0023063 0.432957 0.430651) 1146 2129 1
(0.258747 0.291711 0.0789155 0.370626) 1147 2280 1
(0.329842 0.335079 0.235417 0.0996615) 1148 2282 2
(0.241422 0.379289 0.15994 0.219349) 1149 2284 2
(0.102646 0.130983 0.317695 0.448677) 1074 2132 2
(0.120348 0.439826 0.433302 0.00652385) 1149 2283 1
(0.178826 0.311582 0.410587 0.0990047) 1150 2137 1
(0.20733 0.396335 0.297546 0.0987887) 1151 2139 2
(0.155163 0.176361 0.422419 0.246058) 1151 2139 1
(0.504918 0.247541 0.0848381 0.162703) 1152 2290 2
(0.259191 0.370405 0.21489 0.155515) 1152 2289 1
(0.618811 0.190594 0.0309067 0.159688) 1153 2143 2
(0.329705 0.335148 0.113356 0.221792) 1154 2291 1
(0.0811783 0.459411 0.117778 0.341633) 1201 2384 1
(0.172513 0.413743 0.193126 0.220617) 1203 2242 2
(0.386798 0.306601 0.209136 0.0974645) 1204 2393 2
(0.306491 0.346755 0.319825 0.02693) 1206 2396 1
(0.299593 0.350204 0.0842908 0.265913) 1208 2252 2
(0.0894604 0.45527 0.108264 0.347006) 1284 2549 1
(0.0620485 0.241548 0.227428 0.468976) 1209 2403 1
(0.140431 0.341283 0.0885019 0.429785) 1210 2405 1
(0.123171 0.438414 0.310186 0.128228) 1211 2407 2
(0.109547 0.0128155 0.432411 0.445227) 1212 2406 2
(0.0803571 0.280537 0.179285 0.459821) 1212 2409 1
(0.625556 0.187222 0.0816596 0.105562) 1213 2262 2
(0.0412644 0.479368 0.154993 0.324375) 1214 2410 1
(0.313685 0.266649 0.343158 0.0765091) 1214 2264 1
(0.155442 0.382964 0.422279 0.0393149) 1215 2266 1
(0.277552 0.0432839 0.31794 0.361224) 1217 2416 2
(0.169147 0.103012 0.415426 0.312414) 1217 2418 2
(0.411953 0.00691863 0.294024 0.287105) 1218 2420 2
(0.357584 0.0927827 0.228425 0.321208) 1219 2423 1
(0.336464 0.123992 0.207776 0.331768) 1220 2425 1
(0.287833 0.106939 0.249145 0.356083) 1221 2427 1
(0.241037 0.0880545 0.291427 0.379481) 1222 2429 1
(0.21446 0.0755197 0.31725 0.39277) 1223 2431 1
(0.240805 0.123409 0.379597 0.256188) 1300 2435 1
(0.198741 0.400629 0.340222 0.060407) 1225 2286 2
(0.0912606 0.45437 0.0521918 0.402178) 1226 2434 1
(0.324802 0.337599 0.00598277 0.331616) 1226 2288 2
(0.0994209 0.45029 0.0910902 0.359199) 1227 2436 1
(0.485863 0.257069 0.0743967 0.182672) 1227 2290 2
(0.122186 0.438907 0.198996 0.239911) 1227 2438 1
(0.268853 0.365573 0.126924 0.238649) 1228 2292 2
(0.131956 0.434022 0.307899 0.126123) 1228 2440 1
(0.269689 0.106027 0.365155 0.259128) 1229 2294 1
(0.0672515 0.466374 0.405691 0.0606834) 1201 2387 2
(0.262449 0.10792 0.260856 0.368776) 1202 2389 1
(0.0443524 0.146172 0.477824 0.331652) 1277 2537 2
(0.172504 0.077534 0.413748 0.336214) 1278 2539 2
(0.323552 0.072577 0.265647 0.338224) 1279 2542 1
(0.298726 0.207781 0.142856 0.350637) 1280 2544 1
(0.218066 0.176382 0.214585 0.390967) 1281 2546 1
(0.0356452 0.373797 0.482177 0.10838) 1358 2550 1
(0.076305 0.258376 0.203471 0.461847) 1284 2552 1
(0.224304 0.0347527 0.353096 0.387848) 1285 2554 1
(0.0480114 0.475994 0.0690327 0.406962) 1287 2557 1
(0.191565 0.404217 0.237158 0.16706) 1288 2559 1
(0.11678 0.317353 0.124257 0.44161) 1215 2415 1
(0.300728 0.349636 0.30774 0.041896) 1216 2417 2
(0.349798 0.053887 0.325101 0.271214) 1292 2567 2
(0.442018 0.196819 0.082172 0.278991) 1293 2570 1
(0.35374 0.32313 0.0227236 0.300406) 1294 2572 2