/*--------------------------------*- C++ -*----------------------------------*\
  =========                 |
  \\      /  F ield         | OpenFOAM: The Open Source CFD Toolbox
   \\    /   O peration     | Website:  https://openfoam.org
    \\  /    A nd           | Version:  12
     \\/     M anipulation  |
\*---------------------------------------------------------------------------*/
FoamFile
{
    format      ascii;
    class       vectorField;
    location    "0.9/lagrangian/cloud";
    object      U;
}
// * * * * * * * * * * * * * * * * * * * * * * * * * * * * * * * * * * * * * //


1726
(
(0.000132649 -0.02459 0)
(0.000683958 -0.0249191 0)
(0.000601823 -0.0251228 0)
(-0.000458968 -0.0233145 0)
(0.00171522 -0.0221939 0)
(-2.299e-05 -0.0233752 0)
(0.00130481 -0.0258897 0)
(0.00011481 -0.0278177 0)
(-0.000890422 -0.0290232 0)
(0.00150416 -0.0293546 0)
(-0.000694382 -0.0260593 0)
(0.000144338 -0.0256047 0)
(0.000224586 -0.0253867 0)
(0.00010344 -0.0269489 0)
(0.000122115 -0.0278058 0)
(-0.000861991 -0.0267757 0)
(-4.23175e-05 -0.0257147 0)
(-6.7984e-05 -0.0256055 0)
(-7.02569e-05 -0.0270169 0)
(0.000700259 -0.0262864 0)
(0.000310418 -0.0282218 0)
(0.000193073 -0.0287701 0)
(0.000607301 -0.0291078 0)
(3.17161e-05 -0.0242955 0)
(0.000226398 -0.0238573 0)
(-0.00115903 -0.0231785 0)
(0.000422743 -0.0223342 0)
(0.000276052 -0.0258496 0)
(0.000934384 -0.0299157 0)
(0.000267181 -0.0287884 0)
(0.000256701 -0.0320894 0)
(-2.49629e-06 -0.0276468 0)
(-0.000350492 -0.0272487 0)
(-5.90734e-05 -0.0317089 0)
(-0.000952843 -0.0293642 0)
(-0.000403316 -0.0296518 0)
(0.000598459 -0.0298334 0)
(-0.000869041 -0.0318606 0)
(-0.000619992 -0.0292935 0)
(-0.000120459 -0.0294081 0)
(3.85151e-05 -0.0309855 0)
(-0.000313605 -0.0324939 0)
(-0.000564421 -0.0342097 0)
(-0.000274508 -0.0363324 0)
(-1.49032e-05 -0.0372885 0)
(2.29542e-05 -0.037982 0)
(-0.00121542 -0.0400141 0)
(0.00105874 -0.0411566 0)
(0.000559646 -0.0412678 0)
(0.000950483 -0.0223545 0)
(0.00239447 -0.022557 0)
(-2.11834e-05 -0.026123 0)
(-0.00178266 -0.0247098 0)
(0.000921084 -0.0240457 0)
(-0.00016564 -0.0243437 0)
(-0.00219899 -0.0279363 0)
(-3.41524e-05 -0.0232982 0)
(0.000661973 -0.0216004 0)
(-0.000318802 -0.0215102 0)
(5.69758e-06 -0.0209134 0)
(0.000403669 -0.0225054 0)
(0.000545708 -0.023138 0)
(-1.61529e-05 -0.0253318 0)
(-1.6348e-06 -0.0246961 0)
(1.32516e-05 -0.0213346 0)
(-0.000254569 -0.0215214 0)
(-4.95403e-05 -0.0264131 0)
(0.0002225 -0.0266964 0)
(0.0010553 -0.0258699 0)
(-0.000656 -0.0293373 0)
(-0.000213022 -0.029281 0)
(-0.0010211 -0.0245799 0)
(0.000529488 -0.0185555 0)
(-0.000204121 -0.0226595 0)
(-0.000727408 -0.0282194 0)
(-0.000442067 -0.0301397 0)
(0.000545807 -0.0296877 0)
(0.00104022 -0.0246874 0)
(0.00109925 -0.0236251 0)
(0.000251294 -0.0247033 0)
(9.04786e-05 -0.0247962 0)
(-0.00153098 -0.0259266 0)
(0.000369285 -0.0272816 0)
(0.000417897 -0.0288364 0)
(-0.000745899 -0.0297459 0)
(0.000939289 -0.0309051 0)
(0.00348625 -0.0308785 0)
(0.00233574 -0.0351985 0)
(0.00233345 -0.037651 0)
(-0.000306983 -0.0346414 0)
(0.000757835 -0.0380303 0)
(0.00203787 -0.0343693 0)
(0.00374555 -0.0363808 0)
(0.00128801 -0.0322989 0)
(0.00163367 -0.0328003 0)
(0.000452961 -0.0337373 0)
(0.00066309 -0.0271863 0)
(0.00144182 -0.0306788 0)
(0.00026597 -0.0268814 0)
(0.0011634 -0.0258795 0)
(-6.43813e-05 -0.0236956 0)
(-0.000819784 -0.025917 0)
(-0.000904074 -0.0229896 0)
(0.000173023 -0.0250394 0)
(0.000339187 -0.0336417 0)
(-0.00119274 -0.0320323 0)
(-0.000507106 -0.0327603 0)
(-0.000190382 -0.0329749 0)
(0.000463903 -0.0336906 0)
(0.000344391 -0.0336196 0)
(7.38668e-05 -0.0334914 0)
(-9.53402e-05 -0.0338983 0)
(-0.000472362 -0.0371633 0)
(-8.87857e-05 -0.0352438 0)
(0.000360657 -0.0353824 0)
(0.000817036 -0.0399298 0)
(-0.00144745 -0.0366546 0)
(0.000263356 -0.0359591 0)
(-0.000243577 -0.0358694 0)
(-0.000602409 -0.0378851 0)
(0.000277135 -0.0305387 0)
(0.000239199 -0.035036 0)
(-0.000280876 -0.0295363 0)
(0.000174271 -0.0331559 0)
(-0.000399841 -0.0396789 0)
(0.000224921 -0.0354927 0)
(0.00056823 -0.0338155 0)
(0.000227869 -0.0352844 0)
(-0.000278314 -0.0358865 0)
(0.000884871 -0.0321734 0)
(-0.000312932 -0.0335833 0)
(0.000178749 -0.0331262 0)
(0.00113502 -0.0307107 0)
(0.00209201 -0.0301069 0)
(0.000924137 -0.029524 0)
(0.00157568 -0.031877 0)
(0.000768527 -0.031803 0)
(0.000494284 -0.0317704 0)
(-0.000538313 -0.0286597 0)
(-0.000923379 -0.038278 0)
(0.000860045 -0.0395327 0)
(8.96082e-05 -0.0361042 0)
(8.55665e-05 -0.0361879 0)
(0.000191054 -0.0380146 0)
(0.000457783 -0.0379235 0)
(0.000359042 -0.0384232 0)
(-0.00028859 -0.0417124 0)
(-0.000625213 -0.0416788 0)
(-0.0005693 -0.0421186 0)
(-6.25864e-05 -0.0419629 0)
(-1.3949e-05 -0.0406237 0)
(-7.80753e-05 -0.0383618 0)
(0.000155497 -0.0405549 0)
(-0.00132804 -0.0401751 0)
(-0.000258116 -0.0411946 0)
(0.000374435 -0.0395909 0)
(0.00055908 -0.0386342 0)
(-5.78251e-05 -0.03771 0)
(7.04952e-05 -0.039132 0)
(-0.000323566 -0.0403739 0)
(0.000184509 -0.0399484 0)
(-0.000514602 -0.0402921 0)
(-0.000942744 -0.0364424 0)
(-0.00115971 -0.036484 0)
(-0.000172183 -0.0381225 0)
(4.8269e-05 -0.0323112 0)
(0.000235988 -0.0344755 0)
(0.00121916 -0.0361456 0)
(0.00251974 -0.0344722 0)
(0.00101579 -0.0304024 0)
(0.000397575 -0.0318504 0)
(0.000466742 -0.0365289 0)
(0.000865167 -0.0354111 0)
(0.000560265 -0.0371025 0)
(0.000376106 -0.0380789 0)
(0.00018383 -0.0385918 0)
(-0.000664064 -0.0385984 0)
(0.0011211 -0.0402619 0)
(9.66863e-05 -0.0403535 0)
(0.000223183 -0.0420711 0)
(7.17766e-05 -0.0411612 0)
(9.08227e-06 -0.0414674 0)
(0.000369679 -0.0405016 0)
(0.000382862 -0.0391012 0)
(0.000330051 -0.0379806 0)
(-4.09895e-05 -0.0387616 0)
(-8.6277e-06 -0.0391865 0)
(-0.000114816 -0.0409162 0)
(-0.000622519 -0.040508 0)
(-0.000214016 -0.0395376 0)
(0.000130673 -0.039804 0)
(-0.000162883 -0.0404322 0)
(-0.000173997 -0.04034 0)
(-0.000609728 -0.0421543 0)
(0.000665008 -0.0409577 0)
(0.000501542 -0.0385856 0)
(0.00137539 -0.0374214 0)
(0.00097791 -0.0355108 0)
(0.000274513 -0.0371781 0)
(-0.000339869 -0.0384182 0)
(-0.000170471 -0.0360502 0)
(-0.000138042 -0.0351142 0)
(-0.000115622 -0.0418492 0)
(0.00163323 -0.0447991 0)
(0.000997921 -0.0464808 0)
(0.00213703 -0.0438225 0)
(0.00306041 -0.0414205 0)
(0.00437593 -0.0398899 0)
(0.00247026 -0.0430543 0)
(0.00184887 -0.0427569 0)
(0.00149298 -0.0417855 0)
(5.17991e-05 -0.0410815 0)
(-0.000805214 -0.0408136 0)
(0.00063064 -0.0418551 0)
(0.00106137 -0.0403956 0)
(-2.35955e-05 -0.0410885 0)
(0.000205361 -0.0408094 0)
(0.000320601 -0.0405278 0)
(0.000302851 -0.0405533 0)
(0.000631428 -0.0405322 0)
(0.000581937 -0.0396651 0)
(0.000395417 -0.038934 0)
(-0.000124269 -0.0394921 0)
(-0.000275837 -0.0418853 0)
(0.00046046 -0.0417266 0)
(-0.00135174 -0.0406193 0)
(-0.000303557 -0.0419154 0)
(-0.00040406 -0.0412863 0)
(-0.000743196 -0.0417738 0)
(0.000137609 -0.0424043 0)
(-0.000630529 -0.0434425 0)
(-0.00122982 -0.0434838 0)
(-0.000704424 -0.0439098 0)
(0.000711923 -0.0435759 0)
(0.00116879 -0.0388274 0)
(-0.000117843 -0.0395618 0)
(0.000665553 -0.0443633 0)
(0.00157069 -0.0444401 0)
(0.00259643 -0.0467239 0)
(0.00424493 -0.0500303 0)
(0.00314967 -0.0487905 0)
(0.00142943 -0.044997 0)
(5.51924e-05 -0.046522 0)
(0.000244205 -0.046171 0)
(0.00148058 -0.0432412 0)
(0.000138491 -0.0422555 0)
(0.000164184 -0.0423474 0)
(-4.22147e-05 -0.0411407 0)
(0.000260111 -0.0396177 0)
(0.00108884 -0.03864 0)
(0.000181998 -0.0396167 0)
(0.000181467 -0.0394524 0)
(-0.000435846 -0.0399919 0)
(0.000172321 -0.0398414 0)
(-0.00021523 -0.039903 0)
(-0.000594612 -0.0394852 0)
(-0.000655833 -0.0402772 0)
(-0.000173139 -0.0417236 0)
(0.000106054 -0.0404485 0)
(0.00025813 -0.0390726 0)
(0.000353462 -0.0384977 0)
(-0.000784354 -0.0408457 0)
(0.000118746 -0.0406346 0)
(-0.000333173 -0.0402678 0)
(-0.000370193 -0.0443635 0)
(0.000621298 -0.0445513 0)
(-0.00017341 -0.0421083 0)
(0.000332447 -0.0492749 0)
(0.00172078 -0.0473199 0)
(0.0012689 -0.0473841 0)
(7.74411e-05 -0.0482617 0)
(-0.000617741 -0.0465351 0)
(-0.000154718 -0.0443135 0)
(-0.000305408 -0.04315 0)
(-0.000358852 -0.0425449 0)
(0.000196627 -0.0415095 0)
(0.000514573 -0.0407221 0)
(0.00120306 -0.0395047 0)
(0.000486372 -0.0418384 0)
(-9.9797e-05 -0.0413806 0)
(7.92395e-05 -0.0410605 0)
(0.000367026 -0.0406843 0)
(0.000156276 -0.0402453 0)
(0.000215846 -0.0402276 0)
(9.20022e-05 -0.0404304 0)
(5.52395e-05 -0.0394351 0)
(-0.000469899 -0.0395022 0)
(-0.000486542 -0.0391235 0)
(-0.000649326 -0.0392856 0)
(-0.00040164 -0.0388825 0)
(0.00110964 -0.0356704 0)
(0.00116983 -0.0383347 0)
(0.00149706 -0.0401226 0)
(-0.000225832 -0.0441285 0)
(0.000541335 -0.0425613 0)
(0.000536631 -0.0495242 0)
(0.000712932 -0.0479795 0)
(-0.000173782 -0.0477962 0)
(0.000120317 -0.0450467 0)
(-0.000961563 -0.0451343 0)
(-0.000460816 -0.0442789 0)
(-0.000220771 -0.0442817 0)
(-3.12481e-05 -0.0416698 0)
(3.11929e-05 -0.0408643 0)
(-0.000141147 -0.0408821 0)
(0.000314205 -0.0422415 0)
(0.000392381 -0.0420054 0)
(6.06532e-05 -0.0415858 0)
(-1.92221e-05 -0.0409179 0)
(-0.000188994 -0.0400595 0)
(0.000132451 -0.0413238 0)
(-3.92009e-05 -0.0402147 0)
(0.000175862 -0.0403132 0)
(7.39958e-05 -0.0356108 0)
(0.000169779 -0.0378039 0)
(-7.23448e-05 -0.0376854 0)
(0.000381117 -0.0369391 0)
(0.000480156 -0.0351865 0)
(0.00241973 -0.0363746 0)
(-0.000607053 -0.0362681 0)
(-0.000124301 -0.0385873 0)
(-0.000399738 -0.0385615 0)
(0.000669367 -0.0480247 0)
(-0.000900143 -0.0434752 0)
(-0.000204296 -0.0449575 0)
(-0.000561718 -0.0428182 0)
(3.25255e-05 -0.0421996 0)
(-0.00019043 -0.0381463 0)
(-0.000478809 -0.0394035 0)
(-5.59949e-05 -0.0395049 0)
(9.12773e-05 -0.0410705 0)
(-0.000844318 -0.041956 0)
(-0.000219225 -0.0404235 0)
(-0.000379323 -0.0392333 0)
(-0.000267385 -0.040039 0)
(2.48131e-05 -0.0402203 0)
(0.00166695 -0.0405565 0)
(-0.000645349 -0.0399414 0)
(-7.91943e-05 -0.0403069 0)
(-0.000136767 -0.0404539 0)
(0.000644601 -0.0365368 0)
(-0.000287755 -0.0398328 0)
(9.86665e-05 -0.0371451 0)
(0.000997906 -0.0362495 0)
(-8.35442e-05 -0.0355012 0)
(2.51993e-05 -0.0330957 0)
(-0.000522609 -0.0350194 0)
(-0.000127475 -0.0354064 0)
(0.000733524 -0.0365803 0)
(0.000101078 -0.0449123 0)
(-0.00342275 -0.0437067 0)
(-0.000216409 -0.0441787 0)
(-0.000735425 -0.0443707 0)
(-0.000622633 -0.0400377 0)
(0.000908244 -0.040723 0)
(0.000456248 -0.0403642 0)
(-1.18451e-05 -0.0382632 0)
(-0.000110391 -0.0381195 0)
(0.000465762 -0.0332354 0)
(-0.000276734 -0.0354604 0)
(-0.000973719 -0.0356764 0)
(-0.000101936 -0.0372345 0)
(0.000120236 -0.0376713 0)
(0.00105378 -0.0394989 0)
(0.000376509 -0.0397423 0)
(-0.000736081 -0.0394602 0)
(0.000831822 -0.0422525 0)
(-0.000230459 -0.0406021 0)
(0.000147293 -0.0405418 0)
(-0.000456024 -0.0377892 0)
(5.65812e-06 -0.0396153 0)
(0.000508611 -0.0368032 0)
(0.000947988 -0.0360363 0)
(0.000805457 -0.0363695 0)
(0.00029825 -0.0368086 0)
(9.13216e-05 -0.0368821 0)
(0.00218468 -0.0395843 0)
(0.00155822 -0.039229 0)
(-0.00123147 -0.0345184 0)
(-0.00141453 -0.0422889 0)
(-0.000318603 -0.0439529 0)
(-0.00119564 -0.0425215 0)
(-0.000493085 -0.0435835 0)
(-3.98798e-05 -0.0446394 0)
(-0.000902932 -0.0426684 0)
(-0.00101168 -0.0393462 0)
(0.000225232 -0.0405684 0)
(-0.00071542 -0.0357609 0)
(0.000158503 -0.0387236 0)
(-0.000178761 -0.0394313 0)
(-0.000128497 -0.0390457 0)
(0.000485938 -0.0395842 0)
(0.000745782 -0.037681 0)
(0.000391862 -0.0378699 0)
(0.000413319 -0.0395745 0)
(3.61085e-05 -0.0405364 0)
(-0.000450969 -0.0393662 0)
(0.00017859 -0.038298 0)
(0.000150425 -0.0402895 0)
(-0.000492364 -0.0409316 0)
(-0.000355382 -0.0412876 0)
(0.000133021 -0.0391154 0)
(0.000466736 -0.0371682 0)
(-2.1131e-05 -0.0369971 0)
(0.000590908 -0.037155 0)
(0.00102752 -0.0364906 0)
(0.000912117 -0.0348216 0)
(0.000540111 -0.0364236 0)
(0.00239221 -0.0378634 0)
(0.00303729 -0.0379701 0)
(-0.00113897 -0.0313005 0)
(-0.000666569 -0.0312608 0)
(-0.000182797 -0.0325995 0)
(0.000551797 -0.0355919 0)
(8.01139e-05 -0.0349755 0)
(-0.000560718 -0.0319393 0)
(-0.000174039 -0.0323033 0)
(-0.000551984 -0.0352702 0)
(-0.000879981 -0.0339564 0)
(0.000430931 -0.0341062 0)
(-0.00111798 -0.0369867 0)
(-0.000688885 -0.0376077 0)
(-6.52616e-05 -0.0352639 0)
(-0.000217504 -0.0353766 0)
(-0.000114195 -0.0345453 0)
(-0.000104682 -0.0366107 0)
(-0.00027063 -0.0396926 0)
(6.97222e-05 -0.0427588 0)
(-0.000106479 -0.0422463 0)
(-0.00084365 -0.0410193 0)
(0.000358188 -0.0389098 0)
(0.000101291 -0.0395299 0)
(-8.23565e-06 -0.0405687 0)
(-0.000177648 -0.0406102 0)
(-0.000147995 -0.04047 0)
(-0.000160763 -0.0397857 0)
(-0.000429543 -0.0383268 0)
(-0.000553525 -0.0389284 0)
(-0.000478313 -0.0376647 0)
(-0.000336242 -0.0385392 0)
(0.000105515 -0.0382927 0)
(-0.000676186 -0.0372285 0)
(-0.000441334 -0.0372186 0)
(-0.000105545 -0.037338 0)
(0.00191532 -0.0373509 0)
(0.00134868 -0.0392062 0)
(0.00214699 -0.0379521 0)
(0.0026853 -0.0358083 0)
(-0.000506432 -0.0382057 0)
(-0.000273692 -0.0380644 0)
(0.000102337 -0.0364153 0)
(0.000370081 -0.0369734 0)
(-0.0010969 -0.0390286 0)
(-0.000364265 -0.0392014 0)
(-0.0007371 -0.0388335 0)
(-0.000183121 -0.0399036 0)
(-0.000376473 -0.0362332 0)
(-0.000227122 -0.0364968 0)
(-0.000656562 -0.0364888 0)
(-0.000228906 -0.0361278 0)
(-4.0602e-05 -0.0400453 0)
(-0.000227582 -0.0433117 0)
(-0.000398535 -0.0444368 0)
(-0.000175212 -0.0440165 0)
(-0.000773582 -0.0418878 0)
(-0.000415598 -0.041117 0)
(-7.20905e-05 -0.041892 0)
(8.5204e-05 -0.0415919 0)
(6.93282e-05 -0.0421472 0)
(0.00048457 -0.0414307 0)
(-0.000285911 -0.0409548 0)
(-0.00126636 -0.0392236 0)
(-0.000820817 -0.0380476 0)
(-0.000374146 -0.039275 0)
(-0.00135846 -0.0378589 0)
(-0.00083603 -0.039706 0)
(-0.000368825 -0.039987 0)
(0.000248054 -0.0385735 0)
(1.43211e-05 -0.0397348 0)
(0.000394229 -0.0401432 0)
(-0.000513572 -0.0412558 0)
(0.000479807 -0.0405582 0)
(0.00183473 -0.0384876 0)
(0.00370159 -0.038144 0)
(-0.000675637 -0.0413378 0)
(-0.000132201 -0.0413185 0)
(-0.0002498 -0.0397212 0)
(-0.000754539 -0.0393746 0)
(-0.000136009 -0.0417469 0)
(-0.000651054 -0.0410427 0)
(-0.000114539 -0.0398429 0)
(-0.000324481 -0.0400951 0)
(-0.000859595 -0.0427965 0)
(-0.000695941 -0.0427701 0)
(-0.000116591 -0.0424902 0)
(-0.000271476 -0.0402803 0)
(-0.000958043 -0.0409959 0)
(-0.000133262 -0.0416299 0)
(0.000145922 -0.0420768 0)
(-0.000244678 -0.0421022 0)
(0.000398624 -0.0438048 0)
(0.000153298 -0.0420345 0)
(7.28851e-05 -0.0412163 0)
(-0.00041544 -0.0401277 0)
(-0.000486523 -0.0389136 0)
(-0.000465107 -0.0394187 0)
(-0.000994403 -0.0396524 0)
(-0.000696742 -0.0407796 0)
(-3.39973e-05 -0.0374659 0)
(-0.000838489 -0.0374048 0)
(0.000368275 -0.0378955 0)
(-0.00174492 -0.0408343 0)
(-0.00151059 -0.0394922 0)
(-0.000748238 -0.0419455 0)
(-0.00152172 -0.0398969 0)
(0.000235092 -0.038064 0)
(-0.000419029 -0.0411118 0)
(-0.000639236 -0.0392111 0)
(0.000891997 -0.039142 0)
(0.000478354 -0.0382187 0)
(-0.000141573 -0.0397461 0)
(0.000425102 -0.0394868 0)
(1.77665e-05 -0.0366984 0)
(0.000234254 -0.0362801 0)
(0.000143372 -0.0343072 0)
(-0.00038732 -0.0359572 0)
(-0.00017722 -0.0367962 0)
(-0.000461915 -0.0373293 0)
(-0.00097811 -0.0371476 0)
(-0.00017159 -0.0391453 0)
(-0.000623786 -0.0395927 0)
(-0.00111198 -0.0397673 0)
(0.000665777 -0.042358 0)
(0.000455995 -0.0432519 0)
(0.00041412 -0.0431056 0)
(0.000862879 -0.0414359 0)
(-0.000563388 -0.0407157 0)
(-0.00102933 -0.0384262 0)
(0.000428116 -0.039293 0)
(-0.000145143 -0.0411621 0)
(-0.000223051 -0.0416607 0)
(-0.000243608 -0.0407005 0)
(-0.000573993 -0.0393432 0)
(3.64428e-07 -0.0393536 0)
(-0.000337246 -0.0394028 0)
(-0.000793539 -0.0398222 0)
(0.000152574 -0.0410199 0)
(-0.000342683 -0.0398224 0)
(-0.000770224 -0.0405284 0)
(-0.000201708 -0.0425477 0)
(-0.000411807 -0.0362849 0)
(0.00102575 -0.0387051 0)
(0.000581308 -0.0381399 0)
(-0.000115307 -0.0369706 0)
(0.000132254 -0.0368959 0)
(0.000379498 -0.0348105 0)
(-0.000752945 -0.0372969 0)
(-0.000106613 -0.036101 0)
(0.000104372 -0.0374459 0)
(0.000502099 -0.0349869 0)
(0.000992496 -0.0348624 0)
(-0.00122716 -0.0386848 0)
(-7.86367e-05 -0.03882 0)
(-0.000420123 -0.0389652 0)
(0.000613931 -0.0399961 0)
(-0.000494487 -0.0400573 0)
(-0.000832147 -0.038047 0)
(-0.00140651 -0.038684 0)
(-0.000498177 -0.0395567 0)
(-0.000557771 -0.0402826 0)
(-0.000307975 -0.0408772 0)
(2.28948e-05 -0.0410204 0)
(-0.000205032 -0.0419887 0)
(-0.00105363 -0.0404834 0)
(-0.000335594 -0.0429428 0)
(-0.00151206 -0.0410568 0)
(-0.00112836 -0.0410802 0)
(-0.00069133 -0.0412466 0)
(-0.00116007 -0.0394112 0)
(0.0013062 -0.0387243 0)
(0.000581302 -0.0397718 0)
(0.000176358 -0.0412344 0)
(0.000432751 -0.0419871 0)
(-0.00139301 -0.0352244 0)
(-0.000723536 -0.0386879 0)
(-0.000639181 -0.0386754 0)
(-0.000122775 -0.0367506 0)
(0.00025652 -0.0363628 0)
(-0.0001229 -0.0380264 0)
(-0.000677 -0.0392913 0)
(0.00176414 -0.0351905 0)
(0.00104166 -0.0355556 0)
(0.000776927 -0.038133 0)
(0.00217723 -0.0362449 0)
(0.00110729 -0.0357872 0)
(0.00186878 -0.0374949 0)
(-0.000239387 -0.0402408 0)
(-0.000863967 -0.035783 0)
(-0.000163657 -0.0345864 0)
(-6.24373e-05 -0.0333428 0)
(0.000655778 -0.0337841 0)
(-0.000143826 -0.0335449 0)
(-0.000325179 -0.0347635 0)
(-0.000951825 -0.0374589 0)
(0.000427624 -0.0396013 0)
(-0.000490588 -0.0429632 0)
(-0.000711768 -0.0421218 0)
(-7.4443e-05 -0.0426252 0)
(-0.00073876 -0.0414529 0)
(-0.000425204 -0.0408312 0)
(0.00109569 -0.0414545 0)
(0.000829605 -0.0395382 0)
(0.000601042 -0.0414543 0)
(-8.78948e-06 -0.0423055 0)
(0.000200979 -0.0413772 0)
(0.000646401 -0.0423534 0)
(-0.000507541 -0.0413195 0)
(-0.00179055 -0.0400221 0)
(-0.0010466 -0.0397334 0)
(-0.000350244 -0.0379436 0)
(0.000196471 -0.0389671 0)
(-0.000372137 -0.0397869 0)
(0.000451231 -0.040053 0)
(0.000400017 -0.0357822 0)
(0.000911131 -0.0382546 0)
(0.000150773 -0.0379964 0)
(0.000489885 -0.0361505 0)
(0.000774094 -0.0360339 0)
(0.000460556 -0.03276 0)
(-0.000252336 -0.0347262 0)
(-0.000232771 -0.0349202 0)
(-0.000565164 -0.0355084 0)
(-0.00022322 -0.0345529 0)
(-0.000398241 -0.0350507 0)
(-4.6706e-05 -0.0357895 0)
(-0.000195238 -0.0362643 0)
(0.000190631 -0.0380226 0)
(0.000244302 -0.0407223 0)
(-0.000741667 -0.0438826 0)
(-0.00095837 -0.0434443 0)
(-0.00140276 -0.0432652 0)
(-0.00109361 -0.0428933 0)
(-0.000102282 -0.0429051 0)
(0.00110626 -0.0430764 0)
(0.000817924 -0.0428394 0)
(0.00154873 -0.0415143 0)
(0.000164178 -0.0427225 0)
(0.000198602 -0.0425654 0)
(-0.000353415 -0.0427555 0)
(-0.000670244 -0.0420434 0)
(0.000122954 -0.0402718 0)
(0.000670338 -0.040159 0)
(-0.00111145 -0.039388 0)
(-0.000817101 -0.0385091 0)
(0.000202907 -0.0403164 0)
(-5.50112e-05 -0.0386274 0)
(0.000133353 -0.0382974 0)
(-0.000113378 -0.0377209 0)
(-7.64657e-05 -0.037616 0)
(-0.000657086 -0.0365048 0)
(0.00151455 -0.03662 0)
(0.000329026 -0.0376215 0)
(0.000314331 -0.0378782 0)
(-3.41488e-05 -0.0378719 0)
(-2.16046e-05 -0.0384774 0)
(6.43697e-05 -0.0387367 0)
(-0.000248829 -0.0391663 0)
(-0.000138142 -0.0416839 0)
(0.000778442 -0.0415694 0)
(0.00059941 -0.0430734 0)
(-0.000552841 -0.0423285 0)
(-0.00021926 -0.0426303 0)
(-0.000478478 -0.0434264 0)
(0.000704272 -0.0448424 0)
(9.42537e-06 -0.0436887 0)
(0.000717252 -0.0441054 0)
(0.000373347 -0.0428582 0)
(0.000159297 -0.0425131 0)
(8.16703e-05 -0.0421942 0)
(0.000134541 -0.042678 0)
(0.000220083 -0.0415736 0)
(0.000259636 -0.040474 0)
(0.000584521 -0.0393349 0)
(-0.000378262 -0.0376247 0)
(-0.000466771 -0.0395665 0)
(0.000718559 -0.04085 0)
(0.00133011 -0.0406994 0)
(-0.000502982 -0.041557 0)
(0.000473454 -0.0408406 0)
(7.30024e-05 -0.0402607 0)
(0.000645278 -0.0423726 0)
(0.000255001 -0.0401435 0)
(-0.000252397 -0.0405059 0)
(-0.000559457 -0.0399936 0)
(-1.87638e-05 -0.0401077 0)
(-8.18583e-05 -0.0408696 0)
(-0.00017733 -0.0426191 0)
(-0.000285034 -0.0431028 0)
(0.00117375 -0.0422371 0)
(0.00136246 -0.0411477 0)
(0.000107244 -0.0394866 0)
(0.000783791 -0.0392912 0)
(-0.0012213 -0.0412372 0)
(-0.000610377 -0.0400546 0)
(0.000281224 -0.0399188 0)
(0.00101557 -0.0388974 0)
(0.00101657 -0.0404084 0)
(0.00248469 -0.0415147 0)
(0.000953212 -0.0420761 0)
(0.00133751 -0.0417972 0)
(-0.00416017 -0.0381314 0)
(-0.0011196 -0.0400116 0)
(0.000464745 -0.0388773 0)
(-0.00072709 -0.035825 0)
(-0.000455914 -0.0377559 0)
(0.000362287 -0.0428635 0)
(-0.000175745 -0.0443194 0)
(0.00073488 -0.0431839 0)
(0.000735865 -0.0440948 0)
(0.000334351 -0.0456737 0)
(0.000980593 -0.0445701 0)
(0.000550283 -0.0442462 0)
(7.49306e-05 -0.0469933 0)
(0.000146091 -0.0457107 0)
(0.000418583 -0.043102 0)
(0.000516205 -0.043229 0)
(-0.000663985 -0.0438913 0)
(0.000774827 -0.0418954 0)
(1.97132e-05 -0.0395405 0)
(-3.32571e-05 -0.038773 0)
(-6.97249e-06 -0.0373832 0)
(0.00050295 -0.037849 0)
(0.000225991 -0.0371155 0)
(0.000505986 -0.0377271 0)
(-0.000320486 -0.0362061 0)
(-0.000698671 -0.0348901 0)
(-0.000312354 -0.0348872 0)
(0.000366989 -0.0345113 0)
(-0.000388645 -0.0369253 0)
(0.000847138 -0.0344675 0)
(-5.38983e-06 -0.0353635 0)
(-0.0026052 -0.0389203 0)
(-0.00121482 -0.0382165 0)
(-0.00108053 -0.0362031 0)
(0.000398027 -0.0399721 0)
(-0.000966391 -0.0419526 0)
(5.91558e-05 -0.0410201 0)
(9.20476e-05 -0.044104 0)
(0.000738045 -0.0463928 0)
(0.000476655 -0.0457531 0)
(5.65834e-05 -0.0448068 0)
(0.000432719 -0.0454878 0)
(0.000148665 -0.0470869 0)
(0.00088915 -0.0487355 0)
(0.000462765 -0.0477159 0)
(-0.000199633 -0.0445039 0)
(-0.00022806 -0.0435463 0)
(0.000299972 -0.0409473 0)
(0.000345516 -0.040057 0)
(0.000761536 -0.0354309 0)
(-0.000413984 -0.0372725 0)
(-0.000246603 -0.0357864 0)
(0.000427735 -0.0354396 0)
(0.000218469 -0.0349196 0)
(0.000611359 -0.0346303 0)
(0.000687345 -0.035193 0)
(-0.0016448 -0.0355587 0)
(-0.000330584 -0.0352684 0)
(-0.00125917 -0.0358244 0)
(-0.000994011 -0.033557 0)
(-0.000256674 -0.0331095 0)
(0.000619527 -0.033366 0)
(-0.000906794 -0.0403782 0)
(-0.00126984 -0.0413391 0)
(-0.000782286 -0.040399 0)
(-0.00144148 -0.0423031 0)
(-0.00156571 -0.0410606 0)
(-0.000793024 -0.0432501 0)
(-0.000716028 -0.046825 0)
(-0.000304319 -0.0471871 0)
(0.000320137 -0.0483832 0)
(0.000201582 -0.0512024 0)
(0.00283503 -0.0489583 0)
(-0.000536568 -0.0477866 0)
(-0.000892179 -0.0470827 0)
(-0.000786222 -0.0447269 0)
(-0.000610938 -0.0452807 0)
(-0.00121045 -0.0460348 0)
(-0.000193136 -0.0391216 0)
(0.000352897 -0.0367084 0)
(-0.000314058 -0.0385704 0)
(4.74532e-06 -0.035425 0)
(-0.000348219 -0.0347515 0)
(0.000458162 -0.0356507 0)
(0.000468683 -0.0355549 0)
(0.000359663 -0.0352405 0)
(0.000471784 -0.036001 0)
(-0.000749833 -0.0358224 0)
(8.83167e-05 -0.0356935 0)
(-0.000568185 -0.0386158 0)
(0.000122698 -0.0392659 0)
(0.000400648 -0.0387013 0)
(0.000177894 -0.0394941 0)
(5.34448e-06 -0.0445509 0)
(-6.72974e-05 -0.0447056 0)
(-2.84641e-05 -0.0432155 0)
(-3.9059e-05 -0.0431734 0)
(-0.000259501 -0.0430516 0)
(0.000310483 -0.0475471 0)
(0.000817304 -0.0504229 0)
(0.000476074 -0.0460099 0)
(5.07905e-05 -0.0438728 0)
(-0.00011409 -0.0454485 0)
(0.000146396 -0.045574 0)
(0.000862159 -0.0435812 0)
(-0.000516897 -0.0433533 0)
(-0.000750235 -0.0469783 0)
(-0.000298337 -0.0410941 0)
(-0.00104058 -0.0422127 0)
(-0.00160665 -0.0404583 0)
(-0.000616961 -0.0407819 0)
(0.000565806 -0.0369828 0)
(0.000680711 -0.0365879 0)
(0.000318285 -0.0372761 0)
(6.5035e-05 -0.0381658 0)
(0.000315065 -0.0394119 0)
(0.000100064 -0.0419088 0)
(0.000302444 -0.0413651 0)
(-9.99312e-05 -0.0401618 0)
(0.000183389 -0.0397088 0)
(9.95672e-05 -0.0413487 0)
(-0.000384598 -0.0414725 0)
(0.00157171 -0.038783 0)
(0.00220393 -0.0405146 0)
(0.000249282 -0.0414819 0)
(0.000310226 -0.0391186 0)
(-0.000460495 -0.0391474 0)
(0.000560454 -0.0403197 0)
(-0.000430183 -0.0387324 0)
(0.000864061 -0.0392846 0)
(-0.000757441 -0.0412452 0)
(-0.00109708 -0.0429366 0)
(0.000757367 -0.0470886 0)
(0.00062969 -0.0471122 0)
(-0.000229263 -0.0421112 0)
(-0.00062681 -0.0444754 0)
(-0.000186819 -0.045481 0)
(0.000754413 -0.0435951 0)
(0.000680225 -0.0438892 0)
(-0.000341375 -0.0458604 0)
(-0.00130044 -0.0462676 0)
(-0.000359725 -0.0438821 0)
(-0.000133882 -0.0435716 0)
(-0.00209116 -0.0415842 0)
(0.000617789 -0.0418432 0)
(-0.000154524 -0.0429683 0)
(-0.000482662 -0.0411316 0)
(3.26284e-05 -0.041945 0)
(-0.000366614 -0.0443001 0)
(0.000117466 -0.0430658 0)
(0.000961162 -0.0418469 0)
(0.000365212 -0.0428842 0)
(0.000290077 -0.0427627 0)
(0.00011626 -0.042414 0)
(-3.19953e-05 -0.042553 0)
(-0.000569633 -0.0414865 0)
(0.000598951 -0.0400127 0)
(9.1859e-06 -0.039751 0)
(0.00199579 -0.0409931 0)
(0.00102264 -0.0372493 0)
(0.000224492 -0.0434045 0)
(9.06944e-06 -0.0379478 0)
(-6.24442e-05 -0.0450249 0)
(-0.000223224 -0.0414025 0)
(-0.000463593 -0.0419027 0)
(-0.000780929 -0.0407761 0)
(-0.000511045 -0.0412857 0)
(-0.000390643 -0.0410267 0)
(0.000196342 -0.0424224 0)
(5.25186e-05 -0.0415883 0)
(0.000236922 -0.0410095 0)
(0.000408434 -0.041936 0)
(-7.79185e-06 -0.0432957 0)
(-0.000281729 -0.0432887 0)
(0.000200853 -0.0437257 0)
(-0.00126798 -0.0403074 0)
(-0.00112684 -0.0409255 0)
(-0.000794966 -0.0372235 0)
(-0.000748229 -0.0364982 0)
(-0.00178467 -0.0410507 0)
(-0.000690663 -0.0386977 0)
(-0.000440182 -0.0374702 0)
(-0.000276874 -0.0394792 0)
(-2.65934e-06 -0.0389007 0)
(0.000844257 -0.0390631 0)
(2.9269e-05 -0.0411254 0)
(-0.000150354 -0.0416247 0)
(0.000148007 -0.0418654 0)
(0.00037782 -0.0416669 0)
(0.000289401 -0.0407095 0)
(-0.00142364 -0.0414356 0)
(-0.000984558 -0.0407582 0)
(0.00145701 -0.0349225 0)
(-0.000362293 -0.0373193 0)
(-0.000393796 -0.0368471 0)
(-0.000300768 -0.0379015 0)
(0.000294446 -0.035468 0)
(9.88447e-05 -0.0357097 0)
(-0.000235056 -0.0380329 0)
(-0.000226579 -0.0379297 0)
(0.000449402 -0.0392746 0)
(-6.38524e-05 -0.0404084 0)
(-0.00036704 -0.0401345 0)
(5.7427e-05 -0.0411004 0)
(0.000619561 -0.0419245 0)
(-0.00119576 -0.0428261 0)
(-0.0036128 -0.0344162 0)
(-0.00276644 -0.0362185 0)
(0.000445481 -0.0375992 0)
(-5.63984e-05 -0.0370394 0)
(-0.000225055 -0.0375199 0)
(-0.000849526 -0.0351929 0)
(-0.00188517 -0.0347641 0)
(-0.000774577 -0.0375585 0)
(-0.000357701 -0.0370508 0)
(-0.000418236 -0.0351487 0)
(0.0013025 -0.0365542 0)
(-0.000697916 -0.0382188 0)
(1.27389e-05 -0.0384987 0)
(0.000707774 -0.0408976 0)
(-0.000276701 -0.0403328 0)
(0.000147289 -0.0385348 0)
(-0.000524699 -0.038928 0)
(0.00010989 -0.0390868 0)
(-7.03223e-05 -0.0354782 0)
(-0.000712426 -0.0362481 0)
(0.000104883 -0.0372417 0)
(0.000926933 -0.0362516 0)
(0.00162419 -0.0366524 0)
(0.0021016 -0.0372547 0)
(0.000660541 -0.0356525 0)
(0.000837105 -0.0364025 0)
(-0.000617973 -0.0383597 0)
(-7.20643e-05 -0.0370825 0)
(0.00039864 -0.0368489 0)
(4.72949e-05 -0.0366867 0)
(0.00030635 -0.041943 0)
(0.000227879 -0.0383289 0)
(-0.000819753 -0.041875 0)
(-0.00302386 -0.0387721 0)
(-0.00248662 -0.0352399 0)
(-0.000272943 -0.0386588 0)
(-0.000607565 -0.038498 0)
(-0.000499594 -0.039064 0)
(-0.000727034 -0.0391796 0)
(-0.000730713 -0.0374812 0)
(-0.000137632 -0.0363367 0)
(-0.000479968 -0.0371697 0)
(-1.63069e-05 -0.0360988 0)
(0.000222038 -0.0367111 0)
(0.00120836 -0.0390218 0)
(0.000235207 -0.0364503 0)
(-0.000854143 -0.0384541 0)
(0.000945019 -0.0383465 0)
(-0.001361 -0.0369003 0)
(-0.000473861 -0.037371 0)
(-0.000849885 -0.0390148 0)
(2.21097e-05 -0.0370652 0)
(-0.000273725 -0.0369228 0)
(-0.000161304 -0.0340122 0)
(-0.00117807 -0.0349775 0)
(-0.000253105 -0.0362724 0)
(0.00284518 -0.0379753 0)
(0.00157076 -0.0396279 0)
(0.00287246 -0.036256 0)
(0.000198601 -0.0388819 0)
(0.00127626 -0.0379924 0)
(0.000486721 -0.0369569 0)
(-0.002698 -0.0368736 0)
(-0.000585996 -0.0363107 0)
(0.000135379 -0.0365057 0)
(-0.000987282 -0.0364048 0)
(-0.00183813 -0.0337741 0)
(-0.000984485 -0.0372742 0)
(-0.000377316 -0.0374208 0)
(-0.00155163 -0.036042 0)
(-0.000944489 -0.0367363 0)
(0.00020786 -0.0377301 0)
(0.000449536 -0.0390388 0)
(-0.000275598 -0.0394525 0)
(4.83659e-05 -0.0390887 0)
(0.000513381 -0.0392623 0)
(0.000464719 -0.0398085 0)
(0.00214671 -0.0406218 0)
(-0.000232059 -0.0373409 0)
(0.00132439 -0.0394335 0)
(0.000224745 -0.0384424 0)
(0.0010685 -0.0389306 0)
(-0.00148595 -0.0362992 0)
(0.000282661 -0.0379254 0)
(0.00054174 -0.0391665 0)
(-0.00192034 -0.0392933 0)
(-0.000467398 -0.0412437 0)
(0.00118503 -0.0395867 0)
(9.71973e-05 -0.0389632 0)
(0.000579272 -0.0382693 0)
(0.00104117 -0.039919 0)
(0.00188821 -0.037903 0)
(0.00298234 -0.0381767 0)
(0.00263802 -0.0358989 0)
(0.00101853 -0.0378208 0)
(0.000466098 -0.0381169 0)
(0.000195562 -0.0377199 0)
(6.13893e-05 -0.0359733 0)
(-0.000345471 -0.0356981 0)
(-0.00193238 -0.0341053 0)
(-0.000187066 -0.0376686 0)
(0.000236811 -0.0380788 0)
(0.00142354 -0.036242 0)
(0.000305408 -0.0377719 0)
(-0.000779978 -0.0368315 0)
(-0.000328633 -0.0399213 0)
(-0.00111174 -0.0409034 0)
(-0.00104834 -0.0387252 0)
(-6.74074e-05 -0.0383848 0)
(0.000256442 -0.0394506 0)
(0.000363106 -0.0402125 0)
(-4.72734e-05 -0.039626 0)
(0.000133007 -0.0409143 0)
(0.000417235 -0.0410897 0)
(0.000494056 -0.0410341 0)
(-1.77687e-05 -0.0418068 0)
(-0.00120584 -0.0383269 0)
(-0.000525072 -0.0364727 0)
(-0.000336221 -0.0385398 0)
(-0.0012064 -0.0391346 0)
(-9.66775e-05 -0.0421854 0)
(-0.00106602 -0.0394959 0)
(-0.000433435 -0.04122 0)
(-0.000609274 -0.0424877 0)
(0.00103785 -0.0385662 0)
(0.00284357 -0.037609 0)
(0.00324144 -0.0373615 0)
(0.00262828 -0.0384811 0)
(0.000152007 -0.0366521 0)
(0.0007386 -0.0366723 0)
(0.000719681 -0.0380618 0)
(0.000100151 -0.0373276 0)
(-0.000211168 -0.0371809 0)
(-0.000290421 -0.0366101 0)
(-0.000974782 -0.0377201 0)
(-0.000306063 -0.0384622 0)
(0.000355157 -0.038261 0)
(0.000561122 -0.0386091 0)
(-0.000430405 -0.0389657 0)
(-0.000854715 -0.0391873 0)
(-0.00188436 -0.0397009 0)
(0.000773482 -0.0419203 0)
(-0.000928972 -0.0404408 0)
(-0.00114274 -0.040028 0)
(-0.000975703 -0.0401038 0)
(-0.000256496 -0.0409304 0)
(0.000456081 -0.0432671 0)
(0.000525027 -0.0450395 0)
(0.000677702 -0.0453729 0)
(0.000220028 -0.0451787 0)
(-0.000362563 -0.0449599 0)
(0.000226616 -0.043368 0)
(-3.59606e-05 -0.0423482 0)
(-0.000662277 -0.0431531 0)
(0.000191232 -0.0383419 0)
(-0.000983314 -0.0414975 0)
(0.00111444 -0.0415654 0)
(-4.67186e-05 -0.0411446 0)
(-6.03132e-05 -0.0424704 0)
(0.00209856 -0.0347166 0)
(0.00196276 -0.0382529 0)
(0.00144988 -0.03294 0)
(0.000323403 -0.0341593 0)
(0.000160982 -0.0335508 0)
(0.000670208 -0.0352202 0)
(-0.00119033 -0.0354958 0)
(-0.000157716 -0.0346043 0)
(0.00101677 -0.0350108 0)